 Entering Gaussian System, Link 0=g09
 Input=H2O_ccsdt_avdz.gjf
 Output=H2O_ccsdt_avdz.log
 Initial command:
 /opt/local/g09/l1.exe "/data/tmp/Gau-60022.inp" -scrdir="/data/tmp/"
 Entering Link 1 = /opt/local/g09/l1.exe PID=     60023.
  
 Copyright (c) 1988,1990,1992,1993,1995,1998,2003,2009,2013,
            Gaussian, Inc.  All Rights Reserved.
  
 This is part of the Gaussian(R) 09 program.  It is based on
 the Gaussian(R) 03 system (copyright 2003, Gaussian, Inc.),
 the Gaussian(R) 98 system (copyright 1998, Gaussian, Inc.),
 the Gaussian(R) 94 system (copyright 1995, Gaussian, Inc.),
 the Gaussian 92(TM) system (copyright 1992, Gaussian, Inc.),
 the Gaussian 90(TM) system (copyright 1990, Gaussian, Inc.),
 the Gaussian 88(TM) system (copyright 1988, Gaussian, Inc.),
 the Gaussian 86(TM) system (copyright 1986, Carnegie Mellon
 University), and the Gaussian 82(TM) system (copyright 1983,
 Carnegie Mellon University). Gaussian is a federally registered
 trademark of Gaussian, Inc.
  
 This software contains proprietary and confidential information,
 including trade secrets, belonging to Gaussian, Inc.
  
 This software is provided under written license and may be
 used, copied, transmitted, or stored only in accord with that
 written license.
  
 The following legend is applicable only to US Government
 contracts under FAR:
  
                    RESTRICTED RIGHTS LEGEND
  
 Use, reproduction and disclosure by the US Government is
 subject to restrictions as set forth in subparagraphs (a)
 and (c) of the Commercial Computer Software - Restricted
 Rights clause in FAR 52.227-19.
  
 Gaussian, Inc.
 340 Quinnipiac St., Bldg. 40, Wallingford CT 06492
  
  
 ---------------------------------------------------------------
 Warning -- This program may not be used in any manner that
 competes with the business of Gaussian, Inc. or will provide
 assistance to any competitor of Gaussian, Inc.  The licensee
 of this program is prohibited from giving any competitor of
 Gaussian, Inc. access to this program.  By using this program,
 the user acknowledges that Gaussian, Inc. is engaged in the
 business of creating and licensing software in the field of
 computational chemistry and represents and warrants to the
 licensee that it is not a competitor of Gaussian, Inc. and that
 it will not use this program in any manner prohibited above.
 ---------------------------------------------------------------
  

 Cite this work as:
 Gaussian 09, Revision D.01,
 M. J. Frisch, G. W. Trucks, H. B. Schlegel, G. E. Scuseria, 
 M. A. Robb, J. R. Cheeseman, G. Scalmani, V. Barone, B. Mennucci, 
 G. A. Petersson, H. Nakatsuji, M. Caricato, X. Li, H. P. Hratchian, 
 A. F. Izmaylov, J. Bloino, G. Zheng, J. L. Sonnenberg, M. Hada, 
 M. Ehara, K. Toyota, R. Fukuda, J. Hasegawa, M. Ishida, T. Nakajima, 
 Y. Honda, O. Kitao, H. Nakai, T. Vreven, J. A. Montgomery, Jr., 
 J. E. Peralta, F. Ogliaro, M. Bearpark, J. J. Heyd, E. Brothers, 
 K. N. Kudin, V. N. Staroverov, T. Keith, R. Kobayashi, J. Normand, 
 K. Raghavachari, A. Rendell, J. C. Burant, S. S. Iyengar, J. Tomasi, 
 M. Cossi, N. Rega, J. M. Millam, M. Klene, J. E. Knox, J. B. Cross, 
 V. Bakken, C. Adamo, J. Jaramillo, R. Gomperts, R. E. Stratmann, 
 O. Yazyev, A. J. Austin, R. Cammi, C. Pomelli, J. W. Ochterski, 
 R. L. Martin, K. Morokuma, V. G. Zakrzewski, G. A. Voth, 
 P. Salvador, J. J. Dannenberg, S. Dapprich, A. D. Daniels, 
 O. Farkas, J. B. Foresman, J. V. Ortiz, J. Cioslowski, 
 and D. J. Fox, Gaussian, Inc., Wallingford CT, 2013.
 
 ******************************************
 Gaussian 09:  EM64L-G09RevD.01 24-Apr-2013
                31-Aug-2023 
 ******************************************
 %nprocshared=32
 Will use up to   32 processors via shared memory.
 %mem=128GB
 %chk=H2O_ccsdt_avdz.chk
 ---------------------------------------------------
 #p CCSD(T,T1Diag)/aug-cc-pvdz geom=check guess=read
 ---------------------------------------------------
 1/29=2,38=1/1;
 2/12=2,40=1/2;
 3/5=16,7=10,11=9,14=-4,16=1,25=1,30=1,116=-2/1,2,3;
 4/5=1/1;
 5/5=2,38=6/2;
 8/6=4,9=120000,10=1/1,4;
 9/5=7,14=2,36=1/13;
 6/7=2,8=2,9=2,10=2/1;
 99/5=1,9=1/99;
 Leave Link    1 at Thu Aug 31 18:54:05 2023, MaxMem= 17179869184 cpu:         1.9
 (Enter /opt/local/g09/l101.exe)
 -------------------
 Title Card Required
 -------------------
 Structure from the checkpoint file:  "H2O_ccsdt_avdz.chk"
 Charge =  0 Multiplicity = 1
 Redundant internal coordinates found in file.
 O,0,-1.411685743,-0.3933758391,0.
 H,0,-0.4514472552,-0.3516994363,0.
 H,0,-1.69293401,0.5256966762,0.
 Recover connectivity data from disk.
 NAtoms=      3 NQM=        3 NQMF=       0 NMMI=      0 NMMIF=      0
                NMic=       0 NMicF=      0.
                    Isotopes and Nuclear Properties:
 (Nuclear quadrupole moments (NQMom) in fm**2, nuclear magnetic moments (NMagM)
  in nuclear magnetons)

  Atom         1           2           3
 IAtWgt=          16           1           1
 AtmWgt=  15.9949146   1.0078250   1.0078250
 NucSpn=           0           1           1
 AtZEff=  -5.6000000  -1.0000000  -1.0000000
 NQMom=    0.0000000   0.0000000   0.0000000
 NMagM=    0.0000000   2.7928460   2.7928460
 AtZNuc=   8.0000000   1.0000000   1.0000000
 Leave Link  101 at Thu Aug 31 18:54:06 2023, MaxMem= 17179869184 cpu:         3.6
 (Enter /opt/local/g09/l202.exe)
                          Input orientation:                          
 ---------------------------------------------------------------------
 Center     Atomic      Atomic             Coordinates (Angstroms)
 Number     Number       Type             X           Y           Z
 ---------------------------------------------------------------------
      1          8           0       -1.411686   -0.393376    0.000000
      2          1           0       -0.451447   -0.351699    0.000000
      3          1           0       -1.692934    0.525697    0.000000
 ---------------------------------------------------------------------
                    Distance matrix (angstroms):
                    1          2          3
     1  O    0.000000
     2  H    0.961142   0.000000
     3  H    0.961142   1.520235   0.000000
 Stoichiometry    H2O
 Framework group  C2V[C2(O),SGV(H2)]
 Deg. of freedom     2
 Full point group                 C2V     NOp   4
 RotChk:  IX=3 Diff= 2.36D-16
 Largest Abelian subgroup         C2V     NOp   4
 Largest concise Abelian subgroup C2      NOp   2
                         Standard orientation:                         
 ---------------------------------------------------------------------
 Center     Atomic      Atomic             Coordinates (Angstroms)
 Number     Number       Type             X           Y           Z
 ---------------------------------------------------------------------
      1          8           0        0.000000    0.000000    0.117646
      2          1           0        0.000000   -0.760117   -0.470585
      3          1           0        0.000000    0.760117   -0.470585
 ---------------------------------------------------------------------
 Rotational constants (GHZ):    815.9256533    433.9511180    283.2854067
 Leave Link  202 at Thu Aug 31 18:54:06 2023, MaxMem= 17179869184 cpu:         1.9
 (Enter /opt/local/g09/l301.exe)
 Standard basis: Aug-CC-pVDZ (5D, 7F)
 Ernie: Thresh=  0.10000D-02 Tol=  0.10000D-05 Strict=F.
 Ernie:  2 primitive shells out of 39 were deleted.
 There are    20 symmetry adapted cartesian basis functions of A1  symmetry.
 There are     4 symmetry adapted cartesian basis functions of A2  symmetry.
 There are     7 symmetry adapted cartesian basis functions of B1  symmetry.
 There are    12 symmetry adapted cartesian basis functions of B2  symmetry.
 There are    18 symmetry adapted basis functions of A1  symmetry.
 There are     4 symmetry adapted basis functions of A2  symmetry.
 There are     7 symmetry adapted basis functions of B1  symmetry.
 There are    12 symmetry adapted basis functions of B2  symmetry.
    41 basis functions,    65 primitive gaussians,    43 cartesian basis functions
     5 alpha electrons        5 beta electrons
       nuclear repulsion energy         9.1572256637 Hartrees.
 IExCor=    0 DFT=F Ex=HF Corr=None ExCW=0 ScaHFX=  1.000000
 ScaDFX=  1.000000  1.000000  1.000000  1.000000 ScalE2=  1.000000  1.000000
 IRadAn=      0 IRanWt=     -1 IRanGd=            0 ICorTp=0 IEmpDi=  4
 NAtoms=    3 NActive=    3 NUniq=    2 SFac= 2.25D+00 NAtFMM=   60 NAOKFM=F Big=F
 Integral buffers will be    131072 words long.
 Raffenetti 1 integral format.
 Two-electron integral symmetry is turned on.
 Leave Link  301 at Thu Aug 31 18:54:06 2023, MaxMem= 17179869184 cpu:         0.5
 (Enter /opt/local/g09/l302.exe)
 NPDir=0 NMtPBC=     1 NCelOv=     1 NCel=       1 NClECP=     1 NCelD=      1
         NCelK=      1 NCelE2=     1 NClLst=     1 CellRange=     0.0.
 One-electron integrals computed using PRISM.
 One-electron integral symmetry used in STVInt
 NBasis=    41 RedAO= T EigKep=  2.85D-03  NBF=    18     4     7    12
 NBsUse=    41 1.00D-06 EigRej= -1.00D+00 NBFU=    18     4     7    12
 Leave Link  302 at Thu Aug 31 18:54:06 2023, MaxMem= 17179869184 cpu:         2.5
 (Enter /opt/local/g09/l303.exe)
 DipDrv:  MaxL=1.
 Leave Link  303 at Thu Aug 31 18:54:06 2023, MaxMem= 17179869184 cpu:         3.7
 (Enter /opt/local/g09/l401.exe)
 Initial guess from the checkpoint file:  "H2O_ccsdt_avdz.chk"
 B after Tr=     0.000000    0.000000    0.000000
         Rot=    1.000000    0.000000    0.000000    0.000000 Ang=   0.00 deg.
 Guess basis will be translated and rotated to current coordinates.
 JPrj=2 DoOrth=T DoCkMO=T.
 Initial guess orbital symmetries:
       Occupied  (A1) (A1) (B2) (A1) (B1)
       Virtual   (A1) (B2) (B2) (A1) (A1) (B1) (B2) (A1) (A2) (B1)
                 (A1) (B2) (B2) (A1) (B1) (A2) (B2) (A1) (A1) (A1)
                 (B2) (B1) (A1) (A2) (B2) (B1) (B2) (A1) (A2) (B1)
                 (B2) (A1) (A1) (B2) (A1) (A1)
 The electronic state of the initial guess is 1-A1.
 Leave Link  401 at Thu Aug 31 18:54:06 2023, MaxMem= 17179869184 cpu:         2.5
 (Enter /opt/local/g09/l502.exe)
 Closed shell SCF:
 Using DIIS extrapolation, IDIIS=  1040.
 Integral symmetry usage will be decided dynamically.
 Keep R1 ints in memory in symmetry-blocked form, NReq=1236655.
 IVT=       25907 IEndB=       25907 NGot= 17179869184 MDV= 17179741720
 LenX= 17179741720 LenY= 17179739430
 Requested convergence on RMS density matrix=1.00D-08 within 128 cycles.
 Requested convergence on MAX density matrix=1.00D-06.
 Requested convergence on             energy=1.00D-06.
 No special actions if energy rises.
 FoFCou: FMM=F IPFlag=           0 FMFlag=           0 FMFlg1=           0
         NFxFlg=           0 DoJE=F BraDBF=F KetDBF=F FulRan=T
         wScrn=  0.000000 ICntrl=     600 IOpCl=  0 I1Cent=           0 NGrid=           0
         NMat0=    1 NMatS0=    861 NMatT0=    0 NMatD0=    1 NMtDS0=    0 NMtDT0=    0
 Petite list used in FoFCou.

 Cycle   1  Pass 1  IDiag  1:
 E= -76.0356123883194    
 DIIS: error= 1.32D-02 at cycle   1 NSaved=   1.
 NSaved= 1 IEnMin= 1 EnMin= -76.0356123883194     IErMin= 1 ErrMin= 1.32D-02
 ErrMax= 1.32D-02  0.00D+00 EMaxC= 1.00D-01 BMatC= 1.02D-02 BMatP= 1.02D-02
 IDIUse=3 WtCom= 8.68D-01 WtEn= 1.32D-01
 Coeff-Com:  0.100D+01
 Coeff-En:   0.100D+01
 Coeff:      0.100D+01
 Gap=     0.653 Goal=   None    Shift=    0.000
 GapD=    0.653 DampG=2.000 DampE=0.500 DampFc=1.0000 IDamp=-1.
 RMSDP=4.00D-03 MaxDP=3.94D-02              OVMax= 2.17D-02

 Cycle   2  Pass 1  IDiag  1:
 E= -76.0408797848144     Delta-E=       -0.005267396495 Rises=F Damp=F
 DIIS: error= 2.66D-03 at cycle   2 NSaved=   2.
 NSaved= 2 IEnMin= 2 EnMin= -76.0408797848144     IErMin= 2 ErrMin= 2.66D-03
 ErrMax= 2.66D-03  0.00D+00 EMaxC= 1.00D-01 BMatC= 1.95D-04 BMatP= 1.02D-02
 IDIUse=3 WtCom= 9.73D-01 WtEn= 2.66D-02
 Coeff-Com: -0.849D-01 0.108D+01
 Coeff-En:   0.000D+00 0.100D+01
 Coeff:     -0.826D-01 0.108D+01
 Gap=     0.549 Goal=   None    Shift=    0.000
 RMSDP=7.18D-04 MaxDP=6.52D-03 DE=-5.27D-03 OVMax= 6.73D-03

 Cycle   3  Pass 1  IDiag  1:
 E= -76.0411449406145     Delta-E=       -0.000265155800 Rises=F Damp=F
 DIIS: error= 1.46D-03 at cycle   3 NSaved=   3.
 NSaved= 3 IEnMin= 3 EnMin= -76.0411449406145     IErMin= 3 ErrMin= 1.46D-03
 ErrMax= 1.46D-03  0.00D+00 EMaxC= 1.00D-01 BMatC= 2.77D-05 BMatP= 1.95D-04
 IDIUse=3 WtCom= 9.85D-01 WtEn= 1.46D-02
 Coeff-Com: -0.287D-01 0.262D+00 0.767D+00
 Coeff-En:   0.000D+00 0.000D+00 0.100D+01
 Coeff:     -0.283D-01 0.258D+00 0.771D+00
 Gap=     0.544 Goal=   None    Shift=    0.000
 RMSDP=1.10D-04 MaxDP=1.70D-03 DE=-2.65D-04 OVMax= 2.62D-03

 Cycle   4  Pass 1  IDiag  1:
 E= -76.0411737971783     Delta-E=       -0.000028856564 Rises=F Damp=F
 DIIS: error= 4.17D-04 at cycle   4 NSaved=   4.
 NSaved= 4 IEnMin= 4 EnMin= -76.0411737971783     IErMin= 4 ErrMin= 4.17D-04
 ErrMax= 4.17D-04  0.00D+00 EMaxC= 1.00D-01 BMatC= 2.84D-06 BMatP= 2.77D-05
 IDIUse=3 WtCom= 9.96D-01 WtEn= 4.17D-03
 Coeff-Com:  0.811D-02-0.117D+00 0.899D-01 0.102D+01
 Coeff-En:   0.000D+00 0.000D+00 0.000D+00 0.100D+01
 Coeff:      0.808D-02-0.116D+00 0.896D-01 0.102D+01
 Gap=     0.545 Goal=   None    Shift=    0.000
 RMSDP=6.01D-05 MaxDP=7.32D-04 DE=-2.89D-05 OVMax= 1.07D-03

 Cycle   5  Pass 1  IDiag  1:
 E= -76.0411790424205     Delta-E=       -0.000005245242 Rises=F Damp=F
 DIIS: error= 1.11D-04 at cycle   5 NSaved=   5.
 NSaved= 5 IEnMin= 5 EnMin= -76.0411790424205     IErMin= 5 ErrMin= 1.11D-04
 ErrMax= 1.11D-04  0.00D+00 EMaxC= 1.00D-01 BMatC= 1.27D-07 BMatP= 2.84D-06
 IDIUse=3 WtCom= 9.99D-01 WtEn= 1.11D-03
 Coeff-Com: -0.320D-02 0.561D-01-0.686D-01-0.573D+00 0.159D+01
 Coeff-En:   0.000D+00 0.000D+00 0.000D+00 0.000D+00 0.100D+01
 Coeff:     -0.320D-02 0.561D-01-0.685D-01-0.573D+00 0.159D+01
 Gap=     0.545 Goal=   None    Shift=    0.000
 RMSDP=1.67D-05 MaxDP=2.76D-04 DE=-5.25D-06 OVMax= 4.20D-04

 Cycle   6  Pass 1  IDiag  1:
 E= -76.0411794708812     Delta-E=       -0.000000428461 Rises=F Damp=F
 DIIS: error= 1.35D-05 at cycle   6 NSaved=   6.
 NSaved= 6 IEnMin= 6 EnMin= -76.0411794708812     IErMin= 6 ErrMin= 1.35D-05
 ErrMax= 1.35D-05  0.00D+00 EMaxC= 1.00D-01 BMatC= 2.56D-09 BMatP= 1.27D-07
 IDIUse=1 WtCom= 1.00D+00 WtEn= 0.00D+00
 Coeff-Com:  0.260D-03-0.581D-02 0.843D-02 0.789D-01-0.306D+00 0.122D+01
 Coeff:      0.260D-03-0.581D-02 0.843D-02 0.789D-01-0.306D+00 0.122D+01
 Gap=     0.544 Goal=   None    Shift=    0.000
 RMSDP=2.73D-06 MaxDP=3.82D-05 DE=-4.28D-07 OVMax= 4.30D-05

 Cycle   7  Pass 1  IDiag  1:
 E= -76.0411794769267     Delta-E=       -0.000000006045 Rises=F Damp=F
 DIIS: error= 1.71D-06 at cycle   7 NSaved=   7.
 NSaved= 7 IEnMin= 7 EnMin= -76.0411794769267     IErMin= 7 ErrMin= 1.71D-06
 ErrMax= 1.71D-06  0.00D+00 EMaxC= 1.00D-01 BMatC= 1.02D-10 BMatP= 2.56D-09
 IDIUse=1 WtCom= 1.00D+00 WtEn= 0.00D+00
 Coeff-Com:  0.105D-03-0.165D-02 0.147D-02 0.150D-01-0.275D-01-0.142D+00
 Coeff-Com:  0.115D+01
 Coeff:      0.105D-03-0.165D-02 0.147D-02 0.150D-01-0.275D-01-0.142D+00
 Coeff:      0.115D+01
 Gap=     0.544 Goal=   None    Shift=    0.000
 RMSDP=5.67D-07 MaxDP=6.85D-06 DE=-6.05D-09 OVMax= 8.31D-06

 Cycle   8  Pass 1  IDiag  1:
 E= -76.0411794771567     Delta-E=       -0.000000000230 Rises=F Damp=F
 DIIS: error= 5.16D-07 at cycle   8 NSaved=   8.
 NSaved= 8 IEnMin= 8 EnMin= -76.0411794771567     IErMin= 8 ErrMin= 5.16D-07
 ErrMax= 5.16D-07  0.00D+00 EMaxC= 1.00D-01 BMatC= 5.69D-12 BMatP= 1.02D-10
 IDIUse=1 WtCom= 1.00D+00 WtEn= 0.00D+00
 Coeff-Com: -0.382D-04 0.687D-03-0.732D-03-0.779D-02 0.211D-01-0.114D-01
 Coeff-Com: -0.359D+00 0.136D+01
 Coeff:     -0.382D-04 0.687D-03-0.732D-03-0.779D-02 0.211D-01-0.114D-01
 Coeff:     -0.359D+00 0.136D+01
 Gap=     0.544 Goal=   None    Shift=    0.000
 RMSDP=1.37D-07 MaxDP=1.88D-06 DE=-2.30D-10 OVMax= 2.51D-06

 Cycle   9  Pass 1  IDiag  1:
 E= -76.0411794771704     Delta-E=       -0.000000000014 Rises=F Damp=F
 DIIS: error= 6.06D-08 at cycle   9 NSaved=   9.
 NSaved= 9 IEnMin= 9 EnMin= -76.0411794771704     IErMin= 9 ErrMin= 6.06D-08
 ErrMax= 6.06D-08  0.00D+00 EMaxC= 1.00D-01 BMatC= 8.99D-14 BMatP= 5.69D-12
 IDIUse=1 WtCom= 1.00D+00 WtEn= 0.00D+00
 Coeff-Com:  0.121D-04-0.221D-03 0.233D-03 0.254D-02-0.700D-02 0.600D-02
 Coeff-Com:  0.110D+00-0.494D+00 0.138D+01
 Coeff:      0.121D-04-0.221D-03 0.233D-03 0.254D-02-0.700D-02 0.600D-02
 Coeff:      0.110D+00-0.494D+00 0.138D+01
 Gap=     0.544 Goal=   None    Shift=    0.000
 RMSDP=1.48D-08 MaxDP=1.79D-07 DE=-1.37D-11 OVMax= 3.18D-07

 Cycle  10  Pass 1  IDiag  1:
 E= -76.0411794771708     Delta-E=        0.000000000000 Rises=F Damp=F
 DIIS: error= 1.03D-08 at cycle  10 NSaved=  10.
 NSaved=10 IEnMin=10 EnMin= -76.0411794771708     IErMin=10 ErrMin= 1.03D-08
 ErrMax= 1.03D-08  0.00D+00 EMaxC= 1.00D-01 BMatC= 2.59D-15 BMatP= 8.99D-14
 IDIUse=1 WtCom= 1.00D+00 WtEn= 0.00D+00
 Coeff-Com: -0.254D-05 0.469D-04-0.518D-04-0.540D-03 0.152D-02-0.177D-02
 Coeff-Com: -0.208D-01 0.104D+00-0.420D+00 0.134D+01
 Coeff:     -0.254D-05 0.469D-04-0.518D-04-0.540D-03 0.152D-02-0.177D-02
 Coeff:     -0.208D-01 0.104D+00-0.420D+00 0.134D+01
 Gap=     0.544 Goal=   None    Shift=    0.000
 RMSDP=2.17D-09 MaxDP=2.39D-08 DE=-3.41D-13 OVMax= 5.89D-08

 SCF Done:  E(RHF) =  -76.0411794772     A.U. after   10 cycles
            NFock= 10  Conv=0.22D-08     -V/T= 2.0017
 KE= 7.591185046041D+01 PE=-1.988212949946D+02 EE= 3.771103939334D+01
 Leave Link  502 at Thu Aug 31 18:54:06 2023, MaxMem= 17179869184 cpu:         4.1
 (Enter /opt/local/g09/l801.exe)
 Windowed orbitals will be sorted by symmetry type.
 ExpMin= 2.97D-02 ExpMax= 1.17D+04 ExpMxC= 4.01D+02 IAcc=3 IRadAn=         5 AccDes= 0.00D+00
 HarFok:  IExCor=  205 AccDes= 0.00D+00 IRadAn=         5 IDoV=-2 UseB2=F ITyADJ=14
 ICtDFT= 12500011 ScaDFX=  1.000000  1.000000  1.000000  1.000000
 Largest valence mixing into a core orbital is  6.15D-05
 Largest core mixing into a valence orbital is  1.77D-05
 Range of M.O.s used for correlation:     2    41
 NBasis=    41 NAE=     5 NBE=     5 NFC=     1 NFV=     0
 NROrb=     40 NOA=     4 NOB=     4 NVA=    36 NVB=    36
 Leave Link  801 at Thu Aug 31 18:54:07 2023, MaxMem= 17179869184 cpu:         3.8
 (Enter /opt/local/g09/l804.exe)
 Closed-shell transformation, MDV= 17179869184 ITran=4 ISComp=2.
 Semi-Direct transformation.
 ModeAB=           4 MOrb=             4 LenV=   17179676713
 LASXX=        30213 LTotXX=       30213 LenRXX=       63236
 LTotAB=       33023 MaxLAS=      110560 LenRXY=           0
 NonZer=       93449 LenScr=      785920 LnRSAI=      110560
 LnScr1=      785920 LExtra=           0 Total=      1745636
 MaxDsk=          -1 SrtSym=           T ITran=            4
 DoSDTr:  NPSUse= 32
 JobTyp=0 Pass  1:  I=   1 to   4.
 (rs|ai) integrals will be sorted in core.
 Complete sort for first half transformation.
 First half transformation complete.
 Complete sort for second half transformation.
 Second half transformation complete.
 Spin components of T(2) and E(2):
     alpha-alpha T2 =       0.7746721125D-02 E2=     -0.2794788118D-01
     alpha-beta  T2 =       0.4381953884D-01 E2=     -0.1637868696D+00
     beta-beta   T2 =       0.7746721125D-02 E2=     -0.2794788118D-01
 ANorm=    0.1029229314D+01
 E2 =    -0.2196826320D+00 EUMP2 =    -0.76260862109172D+02
 Leave Link  804 at Thu Aug 31 18:54:07 2023, MaxMem= 17179869184 cpu:         4.6
 (Enter /opt/local/g09/l913.exe)
 CIDS:  MDV= 17179869184.
 Frozen-core window:  NFC=   1 NFV=   0.
 IFCWin=0 IBDFC=1 NFBD=     0     0 NFCmp=     0     0 NFFFC=     0     0
 Using DD3R+UMP44R for 1st iteration, S=T.
 Using DD4RQ for 2nd and later iterations.
 Keep R2 and R3 ints in memory in symmetry-blocked form, NReq=1195296.
 FoFCou: FMM=F IPFlag=           0 FMFlag=           0 FMFlg1=           0
         NFxFlg=           0 DoJE=F BraDBF=F KetDBF=F FulRan=T
         wScrn=  0.000000 ICntrl=     600 IOpCl=  0 I1Cent=           0 NGrid=           0
         NMat0=    1 NMatS0=    861 NMatT0=    0 NMatD0=    1 NMtDS0=    0 NMtDT0=    0
 Petite list used in FoFCou.
 CCSD(T)
 =======
 Iterations=  50 Convergence= 0.100D-06
 Iteration Nr.   1
 **********************
 DD1Dir will call FoFMem   1 times, MxPair=        20
 NAB=    10 NAA=     0 NBB=     0.
 MP4(R+Q)=  0.24891335D-02
 Maximum subspace dimension=  5
 Norm of the A-vectors is  1.6815600D-01 conv= 1.00D-05.
 RLE energy=       -0.2218240662
 E3=       -0.46993471D-02        EUMP3=      -0.76265561456D+02
 E4(DQ)=   -0.15086841D-02        UMP4(DQ)=   -0.76267070140D+02
 E4(SDQ)=  -0.32501873D-02        UMP4(SDQ)=  -0.76268811644D+02
 VARIATIONAL ENERGIES WITH THE FIRST-ORDER WAVEFUNCTION:
 DE(Corr)= -0.22180343     E(Corr)=     -76.262982907    
 NORM(A)=   0.10302284D+01
 Iteration Nr.   2
 **********************
 DD1Dir will call FoFMem   1 times, MxPair=        20
 NAB=    10 NAA=     0 NBB=     0.
 Norm of the A-vectors is  6.0881112D-02 conv= 1.00D-05.
 RLE energy=       -0.2270135779
 DE(Corr)= -0.22640016     E(CORR)=     -76.267579636     Delta=-4.60D-03
 NORM(A)=   0.10324422D+01
 Iteration Nr.   3
 **********************
 DD1Dir will call FoFMem   1 times, MxPair=        20
 NAB=    10 NAA=     0 NBB=     0.
 Norm of the A-vectors is  1.7408623D-02 conv= 1.00D-05.
 RLE energy=       -0.2273898751
 DE(Corr)= -0.22696627     E(CORR)=     -76.268145751     Delta=-5.66D-04
 NORM(A)=   0.10329649D+01
 Iteration Nr.   4
 **********************
 DD1Dir will call FoFMem   1 times, MxPair=        20
 NAB=    10 NAA=     0 NBB=     0.
 Norm of the A-vectors is  5.1399669D-03 conv= 1.00D-05.
 RLE energy=       -0.2274277196
 DE(Corr)= -0.22739733     E(CORR)=     -76.268576805     Delta=-4.31D-04
 NORM(A)=   0.10330798D+01
 Iteration Nr.   5
 **********************
 DD1Dir will call FoFMem   1 times, MxPair=        20
 NAB=    10 NAA=     0 NBB=     0.
 Norm of the A-vectors is  1.0685317D-03 conv= 1.00D-05.
 RLE energy=       -0.2274335407
 DE(Corr)= -0.22742982     E(CORR)=     -76.268609293     Delta=-3.25D-05
 NORM(A)=   0.10330983D+01
 Iteration Nr.   6
 **********************
 DD1Dir will call FoFMem   1 times, MxPair=        20
 NAB=    10 NAA=     0 NBB=     0.
 Norm of the A-vectors is  3.3182115D-04 conv= 1.00D-05.
 RLE energy=       -0.2274307731
 DE(Corr)= -0.22743200     E(CORR)=     -76.268611474     Delta=-2.18D-06
 NORM(A)=   0.10331002D+01
 Iteration Nr.   7
 **********************
 DD1Dir will call FoFMem   1 times, MxPair=        20
 NAB=    10 NAA=     0 NBB=     0.
 Norm of the A-vectors is  1.0092848D-04 conv= 1.00D-05.
 RLE energy=       -0.2274313385
 DE(Corr)= -0.22743200     E(CORR)=     -76.268611482     Delta=-8.19D-09
 NORM(A)=   0.10331008D+01
 Iteration Nr.   8
 **********************
 DD1Dir will call FoFMem   1 times, MxPair=        20
 NAB=    10 NAA=     0 NBB=     0.
 Norm of the A-vectors is  3.2879686D-05 conv= 1.00D-05.
 RLE energy=       -0.2274315851
 DE(Corr)= -0.22743167     E(CORR)=     -76.268611147     Delta= 3.35D-07
 NORM(A)=   0.10331012D+01
 Iteration Nr.   9
 **********************
 DD1Dir will call FoFMem   1 times, MxPair=        20
 NAB=    10 NAA=     0 NBB=     0.
 Norm of the A-vectors is  1.2701218D-05 conv= 1.00D-05.
 RLE energy=       -0.2274318028
 DE(Corr)= -0.22743181     E(CORR)=     -76.268611288     Delta=-1.41D-07
 NORM(A)=   0.10331013D+01
 Iteration Nr.  10
 **********************
 DD1Dir will call FoFMem   1 times, MxPair=        20
 NAB=    10 NAA=     0 NBB=     0.
 Norm of the A-vectors is  4.0156724D-06 conv= 1.00D-05.
 RLE energy=       -0.2274318430
 DE(Corr)= -0.22743182     E(CORR)=     -76.268611300     Delta=-1.23D-08
 NORM(A)=   0.10331014D+01
 CI/CC converged in   10 iterations to DelEn=-1.23D-08 Conv= 1.00D-07 ErrA1= 4.02D-06 Conv= 1.00D-05
 T1 Diagnostic =     0.01232015
 Largest amplitude= 3.47D-02
 IPart= 19 IA=    3   10.95% done.
 IPart= 24 IA=    5   21.27% done.
 IPart= 25 IA=    7   30.95% done.
 IPart= 23 IA=    9   40.00% done.
 IPart= 30 IA=   12   52.38% done.
 IPart=  5 IA=   15   63.33% done.
 IPart= 31 IA=   18   72.86% done.
 IPart=  2 IA=   21   80.95% done.
 IPart= 14 IA=   26   91.27% done.
 Time for triples=        8.42 seconds.
 T4(CCSD)= -0.56394924D-02
 T5(CCSD)=  0.40402799D-03
 CCSD(T)= -0.76273846765D+02
 Discarding MO integrals.
 Leave Link  913 at Thu Aug 31 18:54:07 2023, MaxMem= 17179869184 cpu:        19.1
 (Enter /opt/local/g09/l601.exe)
 Copying SCF densities to generalized density rwf, IOpCl= 0 IROHF=0.

 **********************************************************************

            Population analysis using the SCF density.

 **********************************************************************

 Orbital symmetries:
       Occupied  (A1) (A1) (B2) (A1) (B1)
       Virtual   (A1) (B2) (A1) (B1) (A1) (B2) (B2) (A1) (A2) (A1)
                 (B1) (B2) (A1) (B2) (B2) (A1) (B1) (A1) (A2) (A1)
                 (B2) (B1) (A1) (B2) (A2) (B1) (A1) (B2) (A1) (B2)
                 (A1) (B1) (A1) (A2) (A1) (B2)
 The electronic state is 1-A1.
 Alpha  occ. eigenvalues --  -20.57791  -1.35461  -0.71719  -0.58486  -0.50911
 Alpha virt. eigenvalues --    0.03537   0.05791   0.17407   0.19687   0.22236
 Alpha virt. eigenvalues --    0.23155   0.28970   0.33090   0.38550   0.40356
 Alpha virt. eigenvalues --    0.43326   0.53861   0.64766   0.65804   0.81009
 Alpha virt. eigenvalues --    0.92851   1.10134   1.11541   1.14854   1.30659
 Alpha virt. eigenvalues --    1.46594   1.48203   1.58254   2.00057   2.00940
 Alpha virt. eigenvalues --    2.10649   2.36682   2.47509   2.61980   2.71386
 Alpha virt. eigenvalues --    2.96534   3.67278   3.68949   3.70219   4.02245
 Alpha virt. eigenvalues --    4.30070
          Condensed to atoms (all electrons):
               1          2          3
     1  O    7.634624   0.335887   0.335887
     2  H    0.335887   0.545620  -0.034706
     3  H    0.335887  -0.034706   0.545620
 Mulliken charges:
               1
     1  O   -0.306398
     2  H    0.153199
     3  H    0.153199
 Sum of Mulliken charges =   0.00000
 Mulliken charges with hydrogens summed into heavy atoms:
               1
     1  O    0.000000
 Electronic spatial extent (au):  <R**2>=             19.5861
 Charge=              0.0000 electrons
 Dipole moment (field-independent basis, Debye):
    X=              0.0000    Y=              0.0000    Z=             -2.0015  Tot=              2.0015
 Quadrupole moment (field-independent basis, Debye-Ang):
   XX=             -7.5986   YY=             -4.2689   ZZ=             -6.2668
   XY=              0.0000   XZ=              0.0000   YZ=              0.0000
 Traceless Quadrupole moment (field-independent basis, Debye-Ang):
   XX=             -1.5538   YY=              1.7759   ZZ=             -0.2221
   XY=              0.0000   XZ=              0.0000   YZ=              0.0000
 Octapole moment (field-independent basis, Debye-Ang**2):
  XXX=              0.0000  YYY=              0.0000  ZZZ=             -1.1955  XYY=              0.0000
  XXY=              0.0000  XXZ=             -0.2932  XZZ=              0.0000  YZZ=              0.0000
  YYZ=             -1.4008  XYZ=              0.0000
 Hexadecapole moment (field-independent basis, Debye-Ang**3):
 XXXX=             -6.8285 YYYY=             -6.0335 ZZZZ=             -7.3474 XXXY=              0.0000
 XXXZ=              0.0000 YYYX=              0.0000 YYYZ=              0.0000 ZZZX=              0.0000
 ZZZY=              0.0000 XXYY=             -2.4656 XXZZ=             -2.4145 YYZZ=             -1.9040
 XXYZ=              0.0000 YYXZ=              0.0000 ZZXY=              0.0000
 N-N= 9.157225663721D+00 E-N=-1.988212949791D+02  KE= 7.591185046041D+01
 Symmetry A1   KE= 6.791692126787D+01
 Symmetry A2   KE= 9.438810956085D-35
 Symmetry B1   KE= 4.444993641359D+00
 Symmetry B2   KE= 3.549935551174D+00
 Leave Link  601 at Thu Aug 31 18:54:08 2023, MaxMem= 17179869184 cpu:         4.0
 (Enter /opt/local/g09/l9999.exe)
 1\1\GINC-N216\SP\RCCSD(T)-FC\Aug-CC-pVDZ\H2O1\XIZK\31-Aug-2023\0\\#p C
 CSD(T,T1Diag)/aug-cc-pvdz geom=check guess=read\\Title Card Required\\
 0,1\O,0,-1.411685743,-0.3933758391,0.\H,0,-0.4514472552,-0.3516994363,
 0.\H,0,-1.69293401,0.5256966762,0.\\Version=EM64L-G09RevD.01\State=1-A
 1\HF=-76.0411795\MP2=-76.2608621\MP3=-76.2655615\MP4D=-76.2695593\MP4D
 Q=-76.2670701\MP4SDQ=-76.2688116\CCSD=-76.2686113\CCSD(T)=-76.2738468\
 RMSD=2.170e-09\PG=C02V [C2(O1),SGV(H2)]\\@


 NOBODY LOSES ALL THE TIME
 I HAD AN UNCLE NAMED
 SOL WHO WAS A BORN FAILURE AND
 NEARLY EVERYBODY SAID HE SHOULD HAVE GONE
 INTO VAUDEVILLE PERHAPS BECAUSE MY UNCLE SOL COULD
 SING MCCANN HE WAS A DIVER ON XMAS EVE LIKE HELL ITSELF WHICH
 MAY OR MAY NOT ACCOUNT FOR THE FACT THAT MY UNCLE
 SOL INDULGED IN THAT POSSIBLY MOST INEXCUSABLE
 OF ALL TO USE A HIGHFALOOTIN PHRASE
 LUXURIES THAT IS OR TO
 WIT FARMING AND BE
 IT NEEDLESSLY
 ADDED
 MY UNCLE SOL'S FARM     
 FAILED BECAUSE THE CHICKENS
 ATE THE VEGETABLES SO
 MY UNCLE SOL HAD A
 CHICKEN FARM TILL THE
 SKUNKS ATE THE CHICKENS WHEN 
 MY UNCLE SOL
 HAD A SKUNK FARM BUT
 THE SKUNKS CAUGHT COLD AND
 DIED AND SO
 MY UNCLE SOL IMITATED THE
 SKUNKS IN A SUBTLE MANNER
 OR BY DROWNING HIMSELF IN THE WATERTANK
 BUT SOMEBODY WHO'D GIVEN MY UNCLE SOL A VICTOR     
 VICTROLA AND RECORDS WHILE HE LIVED PRESENTED TO
 HIM UPON THE AUSPICIOUS OCCASION OF HIS DECEASE A
 SCRUMPTIOUS NOT TO MENTION SPLENDIFEROUS FUNERAL WITH
 TALL BOYS IN BLACK GLOVES AND FLOWERS AND EVERYTHING AND
 I REMEMBER WE ALL CRIED LIKE THE MISSOURI
 WHEN MY UNCLE SOL'S COFFIN LURCHED BECAUSE     
 SOMEBODY PRESSED A BUTTON
 (AND DOWN WENT
 MY UNCLE
 SOL
 AND STARTED A WORM FARM)
           E. E. CUMMINGS
 Job cpu time:       0 days  0 hours  1 minutes  4.7 seconds.
 File lengths (MBytes):  RWF=     20 Int=      0 D2E=      0 Chk=      2 Scr=      1
 Normal termination of Gaussian 09 at Thu Aug 31 18:54:08 2023.
