 Entering Gaussian System, Link 0=g09
 Input=H2O_ccsdt_avtz.gjf
 Output=H2O_ccsdt_avtz.log
 Initial command:
 /opt/local/g09/l1.exe "/data/tmp/Gau-5967.inp" -scrdir="/data/tmp/"
 Entering Link 1 = /opt/local/g09/l1.exe PID=      5968.
  
 Copyright (c) 1988,1990,1992,1993,1995,1998,2003,2009,2013,
            Gaussian, Inc.  All Rights Reserved.
  
 This is part of the Gaussian(R) 09 program.  It is based on
 the Gaussian(R) 03 system (copyright 2003, Gaussian, Inc.),
 the Gaussian(R) 98 system (copyright 1998, Gaussian, Inc.),
 the Gaussian(R) 94 system (copyright 1995, Gaussian, Inc.),
 the Gaussian 92(TM) system (copyright 1992, Gaussian, Inc.),
 the Gaussian 90(TM) system (copyright 1990, Gaussian, Inc.),
 the Gaussian 88(TM) system (copyright 1988, Gaussian, Inc.),
 the Gaussian 86(TM) system (copyright 1986, Carnegie Mellon
 University), and the Gaussian 82(TM) system (copyright 1983,
 Carnegie Mellon University). Gaussian is a federally registered
 trademark of Gaussian, Inc.
  
 This software contains proprietary and confidential information,
 including trade secrets, belonging to Gaussian, Inc.
  
 This software is provided under written license and may be
 used, copied, transmitted, or stored only in accord with that
 written license.
  
 The following legend is applicable only to US Government
 contracts under FAR:
  
                    RESTRICTED RIGHTS LEGEND
  
 Use, reproduction and disclosure by the US Government is
 subject to restrictions as set forth in subparagraphs (a)
 and (c) of the Commercial Computer Software - Restricted
 Rights clause in FAR 52.227-19.
  
 Gaussian, Inc.
 340 Quinnipiac St., Bldg. 40, Wallingford CT 06492
  
  
 ---------------------------------------------------------------
 Warning -- This program may not be used in any manner that
 competes with the business of Gaussian, Inc. or will provide
 assistance to any competitor of Gaussian, Inc.  The licensee
 of this program is prohibited from giving any competitor of
 Gaussian, Inc. access to this program.  By using this program,
 the user acknowledges that Gaussian, Inc. is engaged in the
 business of creating and licensing software in the field of
 computational chemistry and represents and warrants to the
 licensee that it is not a competitor of Gaussian, Inc. and that
 it will not use this program in any manner prohibited above.
 ---------------------------------------------------------------
  

 Cite this work as:
 Gaussian 09, Revision D.01,
 M. J. Frisch, G. W. Trucks, H. B. Schlegel, G. E. Scuseria, 
 M. A. Robb, J. R. Cheeseman, G. Scalmani, V. Barone, B. Mennucci, 
 G. A. Petersson, H. Nakatsuji, M. Caricato, X. Li, H. P. Hratchian, 
 A. F. Izmaylov, J. Bloino, G. Zheng, J. L. Sonnenberg, M. Hada, 
 M. Ehara, K. Toyota, R. Fukuda, J. Hasegawa, M. Ishida, T. Nakajima, 
 Y. Honda, O. Kitao, H. Nakai, T. Vreven, J. A. Montgomery, Jr., 
 J. E. Peralta, F. Ogliaro, M. Bearpark, J. J. Heyd, E. Brothers, 
 K. N. Kudin, V. N. Staroverov, T. Keith, R. Kobayashi, J. Normand, 
 K. Raghavachari, A. Rendell, J. C. Burant, S. S. Iyengar, J. Tomasi, 
 M. Cossi, N. Rega, J. M. Millam, M. Klene, J. E. Knox, J. B. Cross, 
 V. Bakken, C. Adamo, J. Jaramillo, R. Gomperts, R. E. Stratmann, 
 O. Yazyev, A. J. Austin, R. Cammi, C. Pomelli, J. W. Ochterski, 
 R. L. Martin, K. Morokuma, V. G. Zakrzewski, G. A. Voth, 
 P. Salvador, J. J. Dannenberg, S. Dapprich, A. D. Daniels, 
 O. Farkas, J. B. Foresman, J. V. Ortiz, J. Cioslowski, 
 and D. J. Fox, Gaussian, Inc., Wallingford CT, 2013.
 
 ******************************************
 Gaussian 09:  EM64L-G09RevD.01 24-Apr-2013
                31-Aug-2023 
 ******************************************
 %nprocshared=32
 Will use up to   32 processors via shared memory.
 %mem=128GB
 %chk=H2O_ccsdt_avtz.chk
 ---------------------------------------------------
 #p CCSD(T,T1Diag)/aug-cc-pvtz geom=check guess=read
 ---------------------------------------------------
 1/29=2,38=1/1;
 2/12=2,40=1/2;
 3/5=16,6=1,7=10,11=9,14=-4,16=1,25=1,30=1,116=-2/1,2,3;
 4/5=1/1;
 5/5=2,38=6/2;
 8/6=4,9=120000,10=1/1,4;
 9/5=7,14=2,36=1/13;
 6/7=2,8=2,9=2,10=2/1;
 99/5=1,9=1/99;
 Leave Link    1 at Thu Aug 31 19:33:49 2023, MaxMem= 17179869184 cpu:         1.4
 (Enter /opt/local/g09/l101.exe)
 -------------------
 Title Card Required
 -------------------
 Structure from the checkpoint file:  "H2O_ccsdt_avtz.chk"
 Charge =  0 Multiplicity = 1
 Redundant internal coordinates found in file.
 O,0,-1.411685743,-0.3933758391,0.
 H,0,-0.4514472552,-0.3516994363,0.
 H,0,-1.69293401,0.5256966762,0.
 Recover connectivity data from disk.
 NAtoms=      3 NQM=        3 NQMF=       0 NMMI=      0 NMMIF=      0
                NMic=       0 NMicF=      0.
                    Isotopes and Nuclear Properties:
 (Nuclear quadrupole moments (NQMom) in fm**2, nuclear magnetic moments (NMagM)
  in nuclear magnetons)

  Atom         1           2           3
 IAtWgt=          16           1           1
 AtmWgt=  15.9949146   1.0078250   1.0078250
 NucSpn=           0           1           1
 AtZEff=  -5.6000000  -1.0000000  -1.0000000
 NQMom=    0.0000000   0.0000000   0.0000000
 NMagM=    0.0000000   2.7928460   2.7928460
 AtZNuc=   8.0000000   1.0000000   1.0000000
 Leave Link  101 at Thu Aug 31 19:33:49 2023, MaxMem= 17179869184 cpu:         3.3
 (Enter /opt/local/g09/l202.exe)
                          Input orientation:                          
 ---------------------------------------------------------------------
 Center     Atomic      Atomic             Coordinates (Angstroms)
 Number     Number       Type             X           Y           Z
 ---------------------------------------------------------------------
      1          8           0       -1.411686   -0.393376    0.000000
      2          1           0       -0.451447   -0.351699    0.000000
      3          1           0       -1.692934    0.525697    0.000000
 ---------------------------------------------------------------------
                    Distance matrix (angstroms):
                    1          2          3
     1  O    0.000000
     2  H    0.961142   0.000000
     3  H    0.961142   1.520235   0.000000
 Stoichiometry    H2O
 Framework group  C2V[C2(O),SGV(H2)]
 Deg. of freedom     2
 Full point group                 C2V     NOp   4
 RotChk:  IX=3 Diff= 3.14D-32
 Largest Abelian subgroup         C2V     NOp   4
 Largest concise Abelian subgroup C2      NOp   2
                         Standard orientation:                         
 ---------------------------------------------------------------------
 Center     Atomic      Atomic             Coordinates (Angstroms)
 Number     Number       Type             X           Y           Z
 ---------------------------------------------------------------------
      1          8           0        0.000000    0.000000    0.117646
      2          1           0        0.000000   -0.760117   -0.470585
      3          1           0        0.000000    0.760117   -0.470585
 ---------------------------------------------------------------------
 Rotational constants (GHZ):    815.9256533    433.9511180    283.2854067
 Leave Link  202 at Thu Aug 31 19:33:49 2023, MaxMem= 17179869184 cpu:         0.1
 (Enter /opt/local/g09/l301.exe)
 Standard basis: Aug-CC-pVTZ (5D, 7F)
 Ernie: Thresh=  0.10000D-02 Tol=  0.10000D-05 Strict=F.
 Ernie:  3 primitive shells out of 52 were deleted.
 There are    42 symmetry adapted cartesian basis functions of A1  symmetry.
 There are    12 symmetry adapted cartesian basis functions of A2  symmetry.
 There are    20 symmetry adapted cartesian basis functions of B1  symmetry.
 There are    31 symmetry adapted cartesian basis functions of B2  symmetry.
 There are    35 symmetry adapted basis functions of A1  symmetry.
 There are    12 symmetry adapted basis functions of A2  symmetry.
 There are    18 symmetry adapted basis functions of B1  symmetry.
 There are    27 symmetry adapted basis functions of B2  symmetry.
    92 basis functions,   126 primitive gaussians,   105 cartesian basis functions
     5 alpha electrons        5 beta electrons
       nuclear repulsion energy         9.1572256637 Hartrees.
 IExCor=    0 DFT=F Ex=HF Corr=None ExCW=0 ScaHFX=  1.000000
 ScaDFX=  1.000000  1.000000  1.000000  1.000000 ScalE2=  1.000000  1.000000
 IRadAn=      0 IRanWt=     -1 IRanGd=            0 ICorTp=0 IEmpDi=  4
 NAtoms=    3 NActive=    3 NUniq=    2 SFac= 2.25D+00 NAtFMM=   60 NAOKFM=F Big=F
 Integral buffers will be    131072 words long.
 Raffenetti 1 integral format.
 Two-electron integral symmetry is turned on.
 Leave Link  301 at Thu Aug 31 19:33:49 2023, MaxMem= 17179869184 cpu:         0.4
 (Enter /opt/local/g09/l302.exe)
 NPDir=0 NMtPBC=     1 NCelOv=     1 NCel=       1 NClECP=     1 NCelD=      1
         NCelK=      1 NCelE2=     1 NClLst=     1 CellRange=     0.0.
 One-electron integrals computed using PRISM.
 One-electron integral symmetry used in STVInt
 NBasis=    92 RedAO= T EigKep=  4.76D-04  NBF=    35    12    18    27
 NBsUse=    92 1.00D-06 EigRej= -1.00D+00 NBFU=    35    12    18    27
 Leave Link  302 at Thu Aug 31 19:33:49 2023, MaxMem= 17179869184 cpu:         5.7
 (Enter /opt/local/g09/l303.exe)
 DipDrv:  MaxL=1.
 Leave Link  303 at Thu Aug 31 19:33:50 2023, MaxMem= 17179869184 cpu:         2.8
 (Enter /opt/local/g09/l401.exe)
 Initial guess from the checkpoint file:  "H2O_ccsdt_avtz.chk"
 B after Tr=     0.000000    0.000000    0.000000
         Rot=    1.000000    0.000000    0.000000    0.000000 Ang=   0.00 deg.
 Guess basis will be translated and rotated to current coordinates.
 JPrj=2 DoOrth=T DoCkMO=T.
 Initial guess orbital symmetries:
       Occupied  (A1) (A1) (B2) (A1) (B1)
       Virtual   (A1) (B2) (A1) (B1) (A1) (B2) (B2) (A1) (A2) (A1)
                 (B1) (B2) (A1) (B2) (B2) (A1) (B1) (A1) (A2) (A1)
                 (B2) (B1) (A1) (B2) (A2) (B1) (A1) (B2) (A1) (B2)
                 (A1) (B1) (A1) (A2) (A1) (B2) (A1) (A1) (A1) (A1)
                 (A1) (A1) (A1) (A1) (A1) (A1) (A1) (A1) (A1) (A1)
                 (A1) (A1) (A1) (A2) (A2) (A2) (A2) (A2) (A2) (A2)
                 (A2) (B1) (B1) (B1) (B1) (B1) (B1) (B1) (B1) (B1)
                 (B1) (B1) (B2) (B2) (B2) (B2) (B2) (B2) (B2) (B2)
                 (B2) (B2) (B2) (B2) (B2) (B2) (B2)
 The electronic state of the initial guess is 1-A1.
 Leave Link  401 at Thu Aug 31 19:33:50 2023, MaxMem= 17179869184 cpu:         5.2
 (Enter /opt/local/g09/l502.exe)
 Closed shell SCF:
 Using DIIS extrapolation, IDIIS=  1040.
 Integral symmetry usage will be decided dynamically.
 Keep R1 ints in memory in symmetry-blocked form, NReq=11551458.
 IVT=       55945 IEndB=       55945 NGot= 17179869184 MDV= 17177470600
 LenX= 17177470600 LenY= 17177459134
 Requested convergence on RMS density matrix=1.00D-08 within 128 cycles.
 Requested convergence on MAX density matrix=1.00D-06.
 Requested convergence on             energy=1.00D-06.
 No special actions if energy rises.
 FoFCou: FMM=F IPFlag=           0 FMFlag=           0 FMFlg1=           0
         NFxFlg=           0 DoJE=F BraDBF=F KetDBF=F FulRan=T
         wScrn=  0.000000 ICntrl=     600 IOpCl=  0 I1Cent=           0 NGrid=           0
         NMat0=    1 NMatS0=   4278 NMatT0=    0 NMatD0=    1 NMtDS0=    0 NMtDT0=    0
 Petite list used in FoFCou.

 Cycle   1  Pass 1  IDiag  1:
 E= -76.0553941480293    
 DIIS: error= 1.52D-02 at cycle   1 NSaved=   1.
 NSaved= 1 IEnMin= 1 EnMin= -76.0553941480293     IErMin= 1 ErrMin= 1.52D-02
 ErrMax= 1.52D-02  0.00D+00 EMaxC= 1.00D-01 BMatC= 1.30D-02 BMatP= 1.30D-02
 IDIUse=3 WtCom= 8.48D-01 WtEn= 1.52D-01
 Coeff-Com:  0.100D+01
 Coeff-En:   0.100D+01
 Coeff:      0.100D+01
 Gap=     0.547 Goal=   None    Shift=    0.000
 GapD=    0.547 DampG=2.000 DampE=0.500 DampFc=1.0000 IDamp=-1.
 RMSDP=1.43D-03 MaxDP=2.42D-02              OVMax= 1.22D-02

 Cycle   2  Pass 1  IDiag  1:
 E= -76.0602681769433     Delta-E=       -0.004874028914 Rises=F Damp=F
 DIIS: error= 1.43D-03 at cycle   2 NSaved=   2.
 NSaved= 2 IEnMin= 2 EnMin= -76.0602681769433     IErMin= 2 ErrMin= 1.43D-03
 ErrMax= 1.43D-03  0.00D+00 EMaxC= 1.00D-01 BMatC= 1.06D-04 BMatP= 1.30D-02
 IDIUse=3 WtCom= 9.86D-01 WtEn= 1.43D-02
 Coeff-Com: -0.799D-01 0.108D+01
 Coeff-En:   0.000D+00 0.100D+01
 Coeff:     -0.788D-01 0.108D+01
 Gap=     0.537 Goal=   None    Shift=    0.000
 RMSDP=2.12D-04 MaxDP=3.50D-03 DE=-4.87D-03 OVMax= 2.18D-03

 Cycle   3  Pass 1  IDiag  1:
 E= -76.0603232248556     Delta-E=       -0.000055047912 Rises=F Damp=F
 DIIS: error= 4.46D-04 at cycle   3 NSaved=   3.
 NSaved= 3 IEnMin= 3 EnMin= -76.0603232248556     IErMin= 3 ErrMin= 4.46D-04
 ErrMax= 4.46D-04  0.00D+00 EMaxC= 1.00D-01 BMatC= 8.12D-06 BMatP= 1.06D-04
 IDIUse=3 WtCom= 9.96D-01 WtEn= 4.46D-03
 Coeff-Com: -0.242D-01 0.309D+00 0.716D+00
 Coeff-En:   0.000D+00 0.000D+00 0.100D+01
 Coeff:     -0.241D-01 0.307D+00 0.717D+00
 Gap=     0.540 Goal=   None    Shift=    0.000
 RMSDP=2.06D-05 MaxDP=5.56D-04 DE=-5.50D-05 OVMax= 7.55D-04

 Cycle   4  Pass 1  IDiag  1:
 E= -76.0603281444226     Delta-E=       -0.000004919567 Rises=F Damp=F
 DIIS: error= 1.01D-04 at cycle   4 NSaved=   4.
 NSaved= 4 IEnMin= 4 EnMin= -76.0603281444226     IErMin= 4 ErrMin= 1.01D-04
 ErrMax= 1.01D-04  0.00D+00 EMaxC= 1.00D-01 BMatC= 3.48D-07 BMatP= 8.12D-06
 IDIUse=3 WtCom= 9.99D-01 WtEn= 1.01D-03
 Coeff-Com:  0.318D-02-0.521D-01 0.101D+00 0.948D+00
 Coeff-En:   0.000D+00 0.000D+00 0.000D+00 0.100D+01
 Coeff:      0.318D-02-0.521D-01 0.101D+00 0.948D+00
 Gap=     0.539 Goal=   None    Shift=    0.000
 RMSDP=9.54D-06 MaxDP=1.95D-04 DE=-4.92D-06 OVMax= 1.66D-04

 Cycle   5  Pass 1  IDiag  1:
 E= -76.0603284218319     Delta-E=       -0.000000277409 Rises=F Damp=F
 DIIS: error= 1.03D-05 at cycle   5 NSaved=   5.
 NSaved= 5 IEnMin= 5 EnMin= -76.0603284218319     IErMin= 5 ErrMin= 1.03D-05
 ErrMax= 1.03D-05  0.00D+00 EMaxC= 1.00D-01 BMatC= 3.26D-09 BMatP= 3.48D-07
 IDIUse=1 WtCom= 1.00D+00 WtEn= 0.00D+00
 Coeff-Com:  0.480D-04 0.579D-03-0.200D-01-0.987D-01 0.112D+01
 Coeff:      0.480D-04 0.579D-03-0.200D-01-0.987D-01 0.112D+01
 Gap=     0.539 Goal=   None    Shift=    0.000
 RMSDP=1.20D-06 MaxDP=3.66D-05 DE=-2.77D-07 OVMax= 3.97D-05

 Cycle   6  Pass 1  IDiag  1:
 E= -76.0603284284704     Delta-E=       -0.000000006639 Rises=F Damp=F
 DIIS: error= 3.45D-06 at cycle   6 NSaved=   6.
 NSaved= 6 IEnMin= 6 EnMin= -76.0603284284704     IErMin= 6 ErrMin= 3.45D-06
 ErrMax= 3.45D-06  0.00D+00 EMaxC= 1.00D-01 BMatC= 2.23D-10 BMatP= 3.26D-09
 IDIUse=1 WtCom= 1.00D+00 WtEn= 0.00D+00
 Coeff-Com: -0.167D-03 0.241D-02-0.818D-03-0.306D-01-0.153D+00 0.118D+01
 Coeff:     -0.167D-03 0.241D-02-0.818D-03-0.306D-01-0.153D+00 0.118D+01
 Gap=     0.539 Goal=   None    Shift=    0.000
 RMSDP=2.21D-07 MaxDP=5.86D-06 DE=-6.64D-09 OVMax= 1.31D-05

 Cycle   7  Pass 1  IDiag  1:
 E= -76.0603284289862     Delta-E=       -0.000000000516 Rises=F Damp=F
 DIIS: error= 1.02D-06 at cycle   7 NSaved=   7.
 NSaved= 7 IEnMin= 7 EnMin= -76.0603284289862     IErMin= 7 ErrMin= 1.02D-06
 ErrMax= 1.02D-06  0.00D+00 EMaxC= 1.00D-01 BMatC= 1.17D-11 BMatP= 2.23D-10
 IDIUse=1 WtCom= 1.00D+00 WtEn= 0.00D+00
 Coeff-Com:  0.466D-04-0.721D-03 0.111D-02 0.128D-01 0.460D-02-0.384D+00
 Coeff-Com:  0.137D+01
 Coeff:      0.466D-04-0.721D-03 0.111D-02 0.128D-01 0.460D-02-0.384D+00
 Coeff:      0.137D+01
 Gap=     0.539 Goal=   None    Shift=    0.000
 RMSDP=5.58D-08 MaxDP=1.37D-06 DE=-5.16D-10 OVMax= 4.04D-06

 Cycle   8  Pass 1  IDiag  1:
 E= -76.0603284290220     Delta-E=       -0.000000000036 Rises=F Damp=F
 DIIS: error= 1.58D-07 at cycle   8 NSaved=   8.
 NSaved= 8 IEnMin= 8 EnMin= -76.0603284290220     IErMin= 8 ErrMin= 1.58D-07
 ErrMax= 1.58D-07  0.00D+00 EMaxC= 1.00D-01 BMatC= 4.55D-13 BMatP= 1.17D-11
 IDIUse=1 WtCom= 1.00D+00 WtEn= 0.00D+00
 Coeff-Com: -0.128D-04 0.202D-03-0.394D-03-0.390D-02 0.324D-02 0.106D+00
 Coeff-Com: -0.534D+00 0.143D+01
 Coeff:     -0.128D-04 0.202D-03-0.394D-03-0.390D-02 0.324D-02 0.106D+00
 Coeff:     -0.534D+00 0.143D+01
 Gap=     0.539 Goal=   None    Shift=    0.000
 RMSDP=1.34D-08 MaxDP=2.21D-07 DE=-3.59D-11 OVMax= 7.61D-07

 Cycle   9  Pass 1  IDiag  1:
 E= -76.0603284290227     Delta-E=       -0.000000000001 Rises=F Damp=F
 DIIS: error= 1.83D-08 at cycle   9 NSaved=   9.
 NSaved= 9 IEnMin= 9 EnMin= -76.0603284290227     IErMin= 9 ErrMin= 1.83D-08
 ErrMax= 1.83D-08  0.00D+00 EMaxC= 1.00D-01 BMatC= 1.11D-14 BMatP= 4.55D-13
 IDIUse=1 WtCom= 1.00D+00 WtEn= 0.00D+00
 Coeff-Com:  0.189D-05-0.305D-04 0.589D-04 0.689D-03-0.115D-02-0.165D-01
 Coeff-Com:  0.103D+00-0.385D+00 0.130D+01
 Coeff:      0.189D-05-0.305D-04 0.589D-04 0.689D-03-0.115D-02-0.165D-01
 Coeff:      0.103D+00-0.385D+00 0.130D+01
 Gap=     0.539 Goal=   None    Shift=    0.000
 RMSDP=1.94D-09 MaxDP=3.42D-08 DE=-6.68D-13 OVMax= 9.32D-08

 SCF Done:  E(RHF) =  -76.0603284290     A.U. after    9 cycles
            NFock=  9  Conv=0.19D-08     -V/T= 2.0015
 KE= 7.594326020696D+01 PE=-1.989195774635D+02 EE= 3.775876316376D+01
 Leave Link  502 at Thu Aug 31 19:33:50 2023, MaxMem= 17179869184 cpu:         8.7
 (Enter /opt/local/g09/l801.exe)
 Windowed orbitals will be sorted by symmetry type.
 ExpMin= 2.53D-02 ExpMax= 1.53D+04 ExpMxC= 5.22D+02 IAcc=3 IRadAn=         5 AccDes= 0.00D+00
 HarFok:  IExCor=  205 AccDes= 0.00D+00 IRadAn=         5 IDoV=-2 UseB2=F ITyADJ=14
 ICtDFT= 12500011 ScaDFX=  1.000000  1.000000  1.000000  1.000000
 Largest valence mixing into a core orbital is  1.11D-04
 Largest core mixing into a valence orbital is  1.72D-05
 Range of M.O.s used for correlation:     2    92
 NBasis=    92 NAE=     5 NBE=     5 NFC=     1 NFV=     0
 NROrb=     91 NOA=     4 NOB=     4 NVA=    87 NVB=    87

 **** Warning!!: The largest alpha MO coefficient is  0.15898454D+02

 Leave Link  801 at Thu Aug 31 19:33:50 2023, MaxMem= 17179869184 cpu:         3.0
 (Enter /opt/local/g09/l804.exe)
 Closed-shell transformation, MDV= 17179869184 ITran=4 ISComp=2.
 Semi-Direct transformation.
 ModeAB=           4 MOrb=             4 LenV=   17179496274
 LASXX=       368428 LTotXX=      368428 LenRXX=      751146
 LTotAB=      382718 MaxLAS=     1379560 LenRXY=           0
 NonZer=     1119574 LenScr=     2357760 LnRSAI=     1379560
 LnScr1=     2758656 LExtra=           0 Total=      7247122
 MaxDsk=          -1 SrtSym=           T ITran=            4
 DoSDTr:  NPSUse= 32
 JobTyp=0 Pass  1:  I=   1 to   4.
 (rs|ai) integrals will be sorted in core.
 Complete sort for first half transformation.
 First half transformation complete.
 Complete sort for second half transformation.
 Second half transformation complete.
 Spin components of T(2) and E(2):
     alpha-alpha T2 =       0.8154458360D-02 E2=     -0.3260366425D-01
     alpha-beta  T2 =       0.4735970441D-01 E2=     -0.2034524068D+00
     beta-beta   T2 =       0.8154458360D-02 E2=     -0.3260366425D-01
 ANorm=    0.1031343115D+01
 E2 =    -0.2686597353D+00 EUMP2 =    -0.76328988164335D+02
 Leave Link  804 at Thu Aug 31 19:33:51 2023, MaxMem= 17179869184 cpu:        14.9
 (Enter /opt/local/g09/l913.exe)
 CIDS:  MDV= 17179869184.
 Frozen-core window:  NFC=   1 NFV=   0.
 IFCWin=0 IBDFC=1 NFBD=     0     0 NFCmp=     0     0 NFFFC=     0     0
 Using DD3R+UMP44R for 1st iteration, S=T.
 Using DD4RQ for 2nd and later iterations.
 Keep R2 and R3 ints in memory in symmetry-blocked form, NReq=11497003.
 FoFCou: FMM=F IPFlag=           0 FMFlag=           0 FMFlg1=           0
         NFxFlg=           0 DoJE=F BraDBF=F KetDBF=F FulRan=T
         wScrn=  0.000000 ICntrl=     600 IOpCl=  0 I1Cent=           0 NGrid=           0
         NMat0=    1 NMatS0=   4278 NMatT0=    0 NMatD0=    1 NMtDS0=    0 NMtDT0=    0
 Petite list used in FoFCou.
 CCSD(T)
 =======
 Iterations=  50 Convergence= 0.100D-06
 Iteration Nr.   1
 **********************
 DD1Dir will call FoFMem   1 times, MxPair=        20
 NAB=    10 NAA=     0 NBB=     0.
 MP4(R+Q)=  0.40688072D-02
 Maximum subspace dimension=  5
 Norm of the A-vectors is  1.7490372D-01 conv= 1.00D-05.
 RLE energy=       -0.2671708521
 E3=       -0.26131000D-02        EUMP3=      -0.76331601264D+02
 E4(DQ)=   -0.64007758D-03        UMP4(DQ)=   -0.76332241342D+02
 E4(SDQ)=  -0.25398056D-02        UMP4(SDQ)=  -0.76334141070D+02
 VARIATIONAL ENERGIES WITH THE FIRST-ORDER WAVEFUNCTION:
 DE(Corr)= -0.26716256     E(Corr)=     -76.327490990    
 NORM(A)=   0.10311439D+01
 Iteration Nr.   2
 **********************
 DD1Dir will call FoFMem   1 times, MxPair=        20
 NAB=    10 NAA=     0 NBB=     0.
 Norm of the A-vectors is  5.7408834D-02 conv= 1.00D-05.
 RLE energy=       -0.2729760552
 DE(Corr)= -0.27259003     E(CORR)=     -76.332918456     Delta=-5.43D-03
 NORM(A)=   0.10332669D+01
 Iteration Nr.   3
 **********************
 DD1Dir will call FoFMem   1 times, MxPair=        20
 NAB=    10 NAA=     0 NBB=     0.
 Norm of the A-vectors is  1.6822463D-02 conv= 1.00D-05.
 RLE energy=       -0.2732878094
 DE(Corr)= -0.27291265     E(CORR)=     -76.333241082     Delta=-3.23D-04
 NORM(A)=   0.10336839D+01
 Iteration Nr.   4
 **********************
 DD1Dir will call FoFMem   1 times, MxPair=        20
 NAB=    10 NAA=     0 NBB=     0.
 Norm of the A-vectors is  5.9253157D-03 conv= 1.00D-05.
 RLE energy=       -0.2733212663
 DE(Corr)= -0.27329325     E(CORR)=     -76.333621680     Delta=-3.81D-04
 NORM(A)=   0.10337957D+01
 Iteration Nr.   5
 **********************
 DD1Dir will call FoFMem   1 times, MxPair=        20
 NAB=    10 NAA=     0 NBB=     0.
 Norm of the A-vectors is  1.1422174D-03 conv= 1.00D-05.
 RLE energy=       -0.2733333183
 DE(Corr)= -0.27332794     E(CORR)=     -76.333656368     Delta=-3.47D-05
 NORM(A)=   0.10338183D+01
 Iteration Nr.   6
 **********************
 DD1Dir will call FoFMem   1 times, MxPair=        20
 NAB=    10 NAA=     0 NBB=     0.
 Norm of the A-vectors is  3.1458222D-04 conv= 1.00D-05.
 RLE energy=       -0.2733297017
 DE(Corr)= -0.27333063     E(CORR)=     -76.333659057     Delta=-2.69D-06
 NORM(A)=   0.10338202D+01
 Iteration Nr.   7
 **********************
 DD1Dir will call FoFMem   1 times, MxPair=        20
 NAB=    10 NAA=     0 NBB=     0.
 Norm of the A-vectors is  1.1339296D-04 conv= 1.00D-05.
 RLE energy=       -0.2733297261
 DE(Corr)= -0.27333062     E(CORR)=     -76.333659048     Delta= 8.82D-09
 NORM(A)=   0.10338209D+01
 Iteration Nr.   8
 **********************
 DD1Dir will call FoFMem   1 times, MxPair=        20
 NAB=    10 NAA=     0 NBB=     0.
 Norm of the A-vectors is  3.8945234D-05 conv= 1.00D-05.
 RLE energy=       -0.2733302674
 DE(Corr)= -0.27333037     E(CORR)=     -76.333658801     Delta= 2.48D-07
 NORM(A)=   0.10338212D+01
 Iteration Nr.   9
 **********************
 DD1Dir will call FoFMem   1 times, MxPair=        20
 NAB=    10 NAA=     0 NBB=     0.
 Norm of the A-vectors is  1.2590456D-05 conv= 1.00D-05.
 RLE energy=       -0.2733303654
 DE(Corr)= -0.27333038     E(CORR)=     -76.333658810     Delta=-9.61D-09
 NORM(A)=   0.10338214D+01
 Iteration Nr.  10
 **********************
 DD1Dir will call FoFMem   1 times, MxPair=        20
 NAB=    10 NAA=     0 NBB=     0.
 Norm of the A-vectors is  4.2023440D-06 conv= 1.00D-05.
 RLE energy=       -0.2733304307
 DE(Corr)= -0.27333042     E(CORR)=     -76.333658853     Delta=-4.26D-08
 NORM(A)=   0.10338215D+01
 CI/CC converged in   10 iterations to DelEn=-4.26D-08 Conv= 1.00D-07 ErrA1= 4.20D-06 Conv= 1.00D-05
 T1 Diagnostic =     0.01005238
 Largest amplitude= 2.15D-02
 IPart= 28 IA=    6   11.23% done.
 IPart=  4 IA=   11   21.79% done.
 IPart= 14 IA=   16   31.68% done.
 IPart= 18 IA=   21   40.90% done.
 IPart=  3 IA=   27   51.08% done.
 IPart=  2 IA=   33   60.30% done.
 IPart= 22 IA=   41   71.10% done.
 IPart= 10 IA=   49   80.19% done.
 IPart= 28 IA=   61   90.62% done.
 Time for triples=       64.08 seconds.
 T4(CCSD)= -0.89866455D-02
 T5(CCSD)=  0.32284872D-03
 CCSD(T)= -0.76342322650D+02
 Discarding MO integrals.
 Leave Link  913 at Thu Aug 31 19:33:54 2023, MaxMem= 17179869184 cpu:       106.9
 (Enter /opt/local/g09/l601.exe)
 Copying SCF densities to generalized density rwf, IOpCl= 0 IROHF=0.

 **********************************************************************

            Population analysis using the SCF density.

 **********************************************************************

 Orbital symmetries:
       Occupied  (A1) (A1) (B2) (A1) (B1)
       Virtual   (A1) (B2) (A1) (B1) (A1) (B2) (B2) (A1) (A2) (B1)
                 (A1) (B2) (A1) (B2) (B2) (A1) (A1) (A2) (B1) (A1)
                 (B1) (A1) (B2) (B1) (A2) (B2) (A1) (A1) (B2) (B1)
                 (B2) (A2) (A1) (B2) (A2) (A1) (B1) (A1) (B2) (B2)
                 (A1) (B1) (A2) (A1) (A1) (B1) (B2) (A1) (B2) (B1)
                 (A1) (B2) (A2) (B2) (A1) (A2) (B1) (A1) (B2) (B1)
                 (A2) (A1) (B1) (B2) (A1) (B2) (B2) (A2) (B2) (A1)
                 (B1) (A1) (A1) (B2) (B1) (A1) (B1) (B1) (B2) (A2)
                 (A1) (A2) (A1) (A1) (B2) (B2) (A1)
 The electronic state is 1-A1.
 Alpha  occ. eigenvalues --  -20.56788  -1.35158  -0.71574  -0.58417  -0.51004
 Alpha virt. eigenvalues --    0.02940   0.04767   0.13595   0.15870   0.17508
 Alpha virt. eigenvalues --    0.18298   0.22728   0.24487   0.26524   0.30045
 Alpha virt. eigenvalues --    0.31040   0.36572   0.43737   0.46608   0.59946
 Alpha virt. eigenvalues --    0.65805   0.70828   0.72231   0.73168   0.83017
 Alpha virt. eigenvalues --    0.84597   0.89198   0.91250   0.91881   0.92218
 Alpha virt. eigenvalues --    0.93044   0.96226   1.02097   1.04324   1.08271
 Alpha virt. eigenvalues --    1.10881   1.17578   1.18125   1.26086   1.51029
 Alpha virt. eigenvalues --    1.53799   1.58374   1.80456   1.81678   1.98539
 Alpha virt. eigenvalues --    2.11670   2.26229   2.31578   2.32620   2.41802
 Alpha virt. eigenvalues --    2.41992   2.44264   2.47866   2.67816   2.69838
 Alpha virt. eigenvalues --    2.76972   2.81924   2.88378   3.65107   3.74399
 Alpha virt. eigenvalues --    4.01579   4.08302   4.16867   4.24478   4.29195
 Alpha virt. eigenvalues --    4.37723   4.37730   4.40394   4.51459   4.72245
 Alpha virt. eigenvalues --    4.83957   5.14315   5.14899   5.25396   5.32245
 Alpha virt. eigenvalues --    5.51889   5.66679   6.17309   6.51491   6.70881
 Alpha virt. eigenvalues --    6.89233   7.13193   7.25077   7.30609   7.31030
 Alpha virt. eigenvalues --    7.32450   7.35514   7.53162   7.90176   7.91831
 Alpha virt. eigenvalues --    8.79618  15.71292
          Condensed to atoms (all electrons):
               1          2          3
     1  O    7.903276   0.270584   0.270584
     2  H    0.270584   0.487860   0.019334
     3  H    0.270584   0.019334   0.487860
 Mulliken charges:
               1
     1  O   -0.444444
     2  H    0.222222
     3  H    0.222222
 Sum of Mulliken charges =   0.00000
 Mulliken charges with hydrogens summed into heavy atoms:
               1
     1  O    0.000000
 Electronic spatial extent (au):  <R**2>=             19.5232
 Charge=              0.0000 electrons
 Dipole moment (field-independent basis, Debye):
    X=              0.0000    Y=              0.0000    Z=             -1.9855  Tot=              1.9855
 Quadrupole moment (field-independent basis, Debye-Ang):
   XX=             -7.5670   YY=             -4.2355   ZZ=             -6.2472
   XY=              0.0000   XZ=              0.0000   YZ=              0.0000
 Traceless Quadrupole moment (field-independent basis, Debye-Ang):
   XX=             -1.5504   YY=              1.7811   ZZ=             -0.2306
   XY=              0.0000   XZ=              0.0000   YZ=              0.0000
 Octapole moment (field-independent basis, Debye-Ang**2):
  XXX=              0.0000  YYY=              0.0000  ZZZ=             -1.1391  XYY=              0.0000
  XXY=              0.0000  XXZ=             -0.2518  XZZ=              0.0000  YZZ=              0.0000
  YYZ=             -1.4163  XYZ=              0.0000
 Hexadecapole moment (field-independent basis, Debye-Ang**3):
 XXXX=             -6.7406 YYYY=             -5.9799 ZZZZ=             -7.2661 XXXY=              0.0000
 XXXZ=              0.0000 YYYX=              0.0000 YYYZ=              0.0000 ZZZX=              0.0000
 ZZZY=              0.0000 XXYY=             -2.4535 XXZZ=             -2.3848 YYZZ=             -1.8559
 XXYZ=              0.0000 YYXZ=              0.0000 ZZXY=              0.0000
 N-N= 9.157225663721D+00 E-N=-1.989195776410D+02  KE= 7.594326020696D+01
 Symmetry A1   KE= 6.790516648259D+01
 Symmetry A2   KE= 1.517429855372D-19
 Symmetry B1   KE= 4.466729977359D+00
 Symmetry B2   KE= 3.571363747018D+00
 Leave Link  601 at Thu Aug 31 19:33:55 2023, MaxMem= 17179869184 cpu:         2.9
 (Enter /opt/local/g09/l9999.exe)
 1\1\GINC-N216\SP\RCCSD(T)-FC\Aug-CC-pVTZ\H2O1\XIZK\31-Aug-2023\0\\#p C
 CSD(T,T1Diag)/aug-cc-pvtz geom=check guess=read\\Title Card Required\\
 0,1\O,0,-1.411685743,-0.3933758391,0.\H,0,-0.4514472552,-0.3516994363,
 0.\H,0,-1.69293401,0.5256966762,0.\\Version=EM64L-G09RevD.01\State=1-A
 1\HF=-76.0603284\MP2=-76.3289882\MP3=-76.3316013\MP4D=-76.3363101\MP4D
 Q=-76.3322413\MP4SDQ=-76.3341411\CCSD=-76.3336589\CCSD(T)=-76.3423226\
 RMSD=1.943e-09\PG=C02V [C2(O1),SGV(H2)]\\@


 SUCCESS IS NEVER CERTAIN,
 FAILURE IS NEVER FINAL.
 Job cpu time:       0 days  0 hours  2 minutes 48.7 seconds.
 File lengths (MBytes):  RWF=     65 Int=      0 D2E=      0 Chk=      2 Scr=      1
 Normal termination of Gaussian 09 at Thu Aug 31 19:33:55 2023.
