 Entering Gaussian System, Link 0=g09
 Input=HCN_ccsdt_avdz.gjf
 Output=HCN_ccsdt_avdz.log
 Initial command:
 /opt/local/g09/l1.exe "/data/tmp/Gau-60432.inp" -scrdir="/data/tmp/"
 Entering Link 1 = /opt/local/g09/l1.exe PID=     60433.
  
 Copyright (c) 1988,1990,1992,1993,1995,1998,2003,2009,2013,
            Gaussian, Inc.  All Rights Reserved.
  
 This is part of the Gaussian(R) 09 program.  It is based on
 the Gaussian(R) 03 system (copyright 2003, Gaussian, Inc.),
 the Gaussian(R) 98 system (copyright 1998, Gaussian, Inc.),
 the Gaussian(R) 94 system (copyright 1995, Gaussian, Inc.),
 the Gaussian 92(TM) system (copyright 1992, Gaussian, Inc.),
 the Gaussian 90(TM) system (copyright 1990, Gaussian, Inc.),
 the Gaussian 88(TM) system (copyright 1988, Gaussian, Inc.),
 the Gaussian 86(TM) system (copyright 1986, Carnegie Mellon
 University), and the Gaussian 82(TM) system (copyright 1983,
 Carnegie Mellon University). Gaussian is a federally registered
 trademark of Gaussian, Inc.
  
 This software contains proprietary and confidential information,
 including trade secrets, belonging to Gaussian, Inc.
  
 This software is provided under written license and may be
 used, copied, transmitted, or stored only in accord with that
 written license.
  
 The following legend is applicable only to US Government
 contracts under FAR:
  
                    RESTRICTED RIGHTS LEGEND
  
 Use, reproduction and disclosure by the US Government is
 subject to restrictions as set forth in subparagraphs (a)
 and (c) of the Commercial Computer Software - Restricted
 Rights clause in FAR 52.227-19.
  
 Gaussian, Inc.
 340 Quinnipiac St., Bldg. 40, Wallingford CT 06492
  
  
 ---------------------------------------------------------------
 Warning -- This program may not be used in any manner that
 competes with the business of Gaussian, Inc. or will provide
 assistance to any competitor of Gaussian, Inc.  The licensee
 of this program is prohibited from giving any competitor of
 Gaussian, Inc. access to this program.  By using this program,
 the user acknowledges that Gaussian, Inc. is engaged in the
 business of creating and licensing software in the field of
 computational chemistry and represents and warrants to the
 licensee that it is not a competitor of Gaussian, Inc. and that
 it will not use this program in any manner prohibited above.
 ---------------------------------------------------------------
  

 Cite this work as:
 Gaussian 09, Revision D.01,
 M. J. Frisch, G. W. Trucks, H. B. Schlegel, G. E. Scuseria, 
 M. A. Robb, J. R. Cheeseman, G. Scalmani, V. Barone, B. Mennucci, 
 G. A. Petersson, H. Nakatsuji, M. Caricato, X. Li, H. P. Hratchian, 
 A. F. Izmaylov, J. Bloino, G. Zheng, J. L. Sonnenberg, M. Hada, 
 M. Ehara, K. Toyota, R. Fukuda, J. Hasegawa, M. Ishida, T. Nakajima, 
 Y. Honda, O. Kitao, H. Nakai, T. Vreven, J. A. Montgomery, Jr., 
 J. E. Peralta, F. Ogliaro, M. Bearpark, J. J. Heyd, E. Brothers, 
 K. N. Kudin, V. N. Staroverov, T. Keith, R. Kobayashi, J. Normand, 
 K. Raghavachari, A. Rendell, J. C. Burant, S. S. Iyengar, J. Tomasi, 
 M. Cossi, N. Rega, J. M. Millam, M. Klene, J. E. Knox, J. B. Cross, 
 V. Bakken, C. Adamo, J. Jaramillo, R. Gomperts, R. E. Stratmann, 
 O. Yazyev, A. J. Austin, R. Cammi, C. Pomelli, J. W. Ochterski, 
 R. L. Martin, K. Morokuma, V. G. Zakrzewski, G. A. Voth, 
 P. Salvador, J. J. Dannenberg, S. Dapprich, A. D. Daniels, 
 O. Farkas, J. B. Foresman, J. V. Ortiz, J. Cioslowski, 
 and D. J. Fox, Gaussian, Inc., Wallingford CT, 2013.
 
 ******************************************
 Gaussian 09:  EM64L-G09RevD.01 24-Apr-2013
                31-Aug-2023 
 ******************************************
 %nprocshared=32
 Will use up to   32 processors via shared memory.
 %mem=128GB
 %chk=HCN_ccsdt_avdz.chk
 ---------------------------------------------------
 #p CCSD(T,T1Diag)/aug-cc-pvdz geom=check guess=read
 ---------------------------------------------------
 1/29=2,38=1/1;
 2/12=2,40=1/2;
 3/5=16,7=10,11=9,14=-4,16=1,25=1,30=1,116=-2/1,2,3;
 4/5=1/1;
 5/5=2,38=6/2;
 8/6=4,9=120000,10=1/1,4;
 9/5=7,14=2,36=1/13;
 6/7=2,8=2,9=2,10=2/1;
 99/5=1,9=1/99;
 Leave Link    1 at Thu Aug 31 18:54:08 2023, MaxMem= 17179869184 cpu:         1.3
 (Enter /opt/local/g09/l101.exe)
 -------------------
 Title Card Required
 -------------------
 Structure from the checkpoint file:  "HCN_ccsdt_avdz.chk"
 Charge =  0 Multiplicity = 1
 Redundant internal coordinates found in file.
 N,0,-0.5709300026,0.,0.
 C,0,0.5753337745,0.,0.
 H,0,1.6405962281,0.,0.
 Recover connectivity data from disk.
 NAtoms=      3 NQM=        3 NQMF=       0 NMMI=      0 NMMIF=      0
                NMic=       0 NMicF=      0.
                    Isotopes and Nuclear Properties:
 (Nuclear quadrupole moments (NQMom) in fm**2, nuclear magnetic moments (NMagM)
  in nuclear magnetons)

  Atom         1           2           3
 IAtWgt=          14          12           1
 AtmWgt=  14.0030740  12.0000000   1.0078250
 NucSpn=           2           0           1
 AtZEff=  -4.5500000  -3.6000000  -1.0000000
 NQMom=    2.0440000   0.0000000   0.0000000
 NMagM=    0.4037610   0.0000000   2.7928460
 AtZNuc=   7.0000000   6.0000000   1.0000000
 Leave Link  101 at Thu Aug 31 18:54:08 2023, MaxMem= 17179869184 cpu:         3.9
 (Enter /opt/local/g09/l202.exe)
                          Input orientation:                          
 ---------------------------------------------------------------------
 Center     Atomic      Atomic             Coordinates (Angstroms)
 Number     Number       Type             X           Y           Z
 ---------------------------------------------------------------------
      1          7           0       -0.570930    0.000000    0.000000
      2          6           0        0.575334    0.000000    0.000000
      3          1           0        1.640596    0.000000    0.000000
 ---------------------------------------------------------------------
                    Distance matrix (angstroms):
                    1          2          3
     1  N    0.000000
     2  C    1.146264   0.000000
     3  H    2.211526   1.065262   0.000000
 Stoichiometry    CHN
 Framework group  C*V[C*(HCN)]
 Deg. of freedom     2
 Full point group                 C*V     NOp   4
 RotChk:  IX=0 Diff= 0.00D+00
 Largest Abelian subgroup         C2V     NOp   4
 Largest concise Abelian subgroup C1      NOp   1
                         Standard orientation:                         
 ---------------------------------------------------------------------
 Center     Atomic      Atomic             Coordinates (Angstroms)
 Number     Number       Type             X           Y           Z
 ---------------------------------------------------------------------
      1          7           0        0.000000    0.000000    0.649222
      2          6           0        0.000000    0.000000   -0.497042
      3          1           0        0.000000    0.000000   -1.562304
 ---------------------------------------------------------------------
 Rotational constants (GHZ):      0.0000000     44.9727037     44.9727037
 Leave Link  202 at Thu Aug 31 18:54:08 2023, MaxMem= 17179869184 cpu:         0.1
 (Enter /opt/local/g09/l301.exe)
 Standard basis: Aug-CC-pVDZ (5D, 7F)
 Ernie: Thresh=  0.10000D-02 Tol=  0.10000D-05 Strict=F.
 Ernie:  4 primitive shells out of 57 were deleted.
 There are    31 symmetry adapted cartesian basis functions of A1  symmetry.
 There are     4 symmetry adapted cartesian basis functions of A2  symmetry.
 There are    12 symmetry adapted cartesian basis functions of B1  symmetry.
 There are    12 symmetry adapted cartesian basis functions of B2  symmetry.
 There are    27 symmetry adapted basis functions of A1  symmetry.
 There are     4 symmetry adapted basis functions of A2  symmetry.
 There are    12 symmetry adapted basis functions of B1  symmetry.
 There are    12 symmetry adapted basis functions of B2  symmetry.
    55 basis functions,    97 primitive gaussians,    59 cartesian basis functions
     7 alpha electrons        7 beta electrons
       nuclear repulsion energy        24.0449819017 Hartrees.
 IExCor=    0 DFT=F Ex=HF Corr=None ExCW=0 ScaHFX=  1.000000
 ScaDFX=  1.000000  1.000000  1.000000  1.000000 ScalE2=  1.000000  1.000000
 IRadAn=      0 IRanWt=     -1 IRanGd=            0 ICorTp=0 IEmpDi=  4
 NAtoms=    3 NActive=    3 NUniq=    3 SFac= 1.00D+00 NAtFMM=   60 NAOKFM=F Big=F
 Integral buffers will be    131072 words long.
 Raffenetti 1 integral format.
 Two-electron integral symmetry is turned on.
 Leave Link  301 at Thu Aug 31 18:54:08 2023, MaxMem= 17179869184 cpu:         0.7
 (Enter /opt/local/g09/l302.exe)
 NPDir=0 NMtPBC=     1 NCelOv=     1 NCel=       1 NClECP=     1 NCelD=      1
         NCelK=      1 NCelE2=     1 NClLst=     1 CellRange=     0.0.
 One-electron integrals computed using PRISM.
 NBasis=    55 RedAO= T EigKep=  1.28D-03  NBF=    27     4    12    12
 NBsUse=    55 1.00D-06 EigRej= -1.00D+00 NBFU=    27     4    12    12
 Leave Link  302 at Thu Aug 31 18:54:08 2023, MaxMem= 17179869184 cpu:         2.9
 (Enter /opt/local/g09/l303.exe)
 DipDrv:  MaxL=1.
 Leave Link  303 at Thu Aug 31 18:54:08 2023, MaxMem= 17179869184 cpu:         2.5
 (Enter /opt/local/g09/l401.exe)
 Initial guess from the checkpoint file:  "HCN_ccsdt_avdz.chk"
 B after Tr=     0.000000    0.000000    0.000000
         Rot=    1.000000    0.000000    0.000000    0.000000 Ang=   0.00 deg.
 Guess basis will be translated and rotated to current coordinates.
 JPrj=2 DoOrth=T DoCkMO=T.
 Initial guess orbital symmetries:
       Occupied  (SG) (SG) (SG) (SG) (SG) (PI) (PI)
       Virtual   (PI) (PI) (SG) (SG) (PI) (PI) (SG) (SG) (SG) (PI)
                 (PI) (DLTA) (DLTA) (PI) (PI) (SG) (SG) (PI) (PI)
                 (DLTA) (DLTA) (SG) (SG) (PI) (PI) (SG) (PI) (PI)
                 (SG) (SG) (DLTA) (DLTA) (PI) (PI) (PI) (PI) (DLTA)
                 (DLTA) (PI) (PI) (SG) (SG) (SG) (SG) (SG) (SG)
                 (PI) (PI)
 The electronic state of the initial guess is 1-SG.
 Leave Link  401 at Thu Aug 31 18:54:09 2023, MaxMem= 17179869184 cpu:         2.2
 (Enter /opt/local/g09/l502.exe)
 Closed shell SCF:
 Using DIIS extrapolation, IDIIS=  1040.
 Integral symmetry usage will be decided dynamically.
 Keep R1 ints in memory in symmetry-blocked form, NReq=2069883.
 IVT=       31400 IEndB=       31400 NGot= 17179869184 MDV= 17179513906
 LenX= 17179513906 LenY= 17179509984
 Requested convergence on RMS density matrix=1.00D-08 within 128 cycles.
 Requested convergence on MAX density matrix=1.00D-06.
 Requested convergence on             energy=1.00D-06.
 No special actions if energy rises.
 FoFCou: FMM=F IPFlag=           0 FMFlag=           0 FMFlg1=           0
         NFxFlg=           0 DoJE=F BraDBF=F KetDBF=F FulRan=T
         wScrn=  0.000000 ICntrl=     600 IOpCl=  0 I1Cent=           0 NGrid=           0
         NMat0=    1 NMatS0=   1540 NMatT0=    0 NMatD0=    1 NMtDS0=    0 NMtDT0=    0
 Petite list used in FoFCou.

 Cycle   1  Pass 1  IDiag  1:
 E= -92.8780242807286    
 DIIS: error= 1.50D-02 at cycle   1 NSaved=   1.
 NSaved= 1 IEnMin= 1 EnMin= -92.8780242807286     IErMin= 1 ErrMin= 1.50D-02
 ErrMax= 1.50D-02  0.00D+00 EMaxC= 1.00D-01 BMatC= 1.74D-02 BMatP= 1.74D-02
 IDIUse=3 WtCom= 8.50D-01 WtEn= 1.50D-01
 Coeff-Com:  0.100D+01
 Coeff-En:   0.100D+01
 Coeff:      0.100D+01
 Gap=     0.660 Goal=   None    Shift=    0.000
 GapD=    0.660 DampG=2.000 DampE=0.500 DampFc=1.0000 IDamp=-1.
 RMSDP=4.84D-03 MaxDP=7.71D-02              OVMax= 2.81D-02

 Cycle   2  Pass 1  IDiag  1:
 E= -92.8876551468435     Delta-E=       -0.009630866115 Rises=F Damp=F
 DIIS: error= 2.72D-03 at cycle   2 NSaved=   2.
 NSaved= 2 IEnMin= 2 EnMin= -92.8876551468435     IErMin= 2 ErrMin= 2.72D-03
 ErrMax= 2.72D-03  0.00D+00 EMaxC= 1.00D-01 BMatC= 3.19D-04 BMatP= 1.74D-02
 IDIUse=3 WtCom= 9.73D-01 WtEn= 2.72D-02
 Coeff-Com: -0.827D-01 0.108D+01
 Coeff-En:   0.000D+00 0.100D+01
 Coeff:     -0.804D-01 0.108D+01
 Gap=     0.533 Goal=   None    Shift=    0.000
 RMSDP=7.39D-04 MaxDP=1.04D-02 DE=-9.63D-03 OVMax= 7.16D-03

 Cycle   3  Pass 1  IDiag  1:
 E= -92.8880114780489     Delta-E=       -0.000356331205 Rises=F Damp=F
 DIIS: error= 6.40D-04 at cycle   3 NSaved=   3.
 NSaved= 3 IEnMin= 3 EnMin= -92.8880114780489     IErMin= 3 ErrMin= 6.40D-04
 ErrMax= 6.40D-04  0.00D+00 EMaxC= 1.00D-01 BMatC= 1.98D-05 BMatP= 3.19D-04
 IDIUse=3 WtCom= 9.94D-01 WtEn= 6.40D-03
 Coeff-Com: -0.170D-01 0.861D-01 0.931D+00
 Coeff-En:   0.000D+00 0.000D+00 0.100D+01
 Coeff:     -0.169D-01 0.856D-01 0.931D+00
 Gap=     0.527 Goal=   None    Shift=    0.000
 RMSDP=1.19D-04 MaxDP=1.44D-03 DE=-3.56D-04 OVMax= 1.92D-03

 Cycle   4  Pass 1  IDiag  1:
 E= -92.8880354457695     Delta-E=       -0.000023967721 Rises=F Damp=F
 DIIS: error= 2.16D-04 at cycle   4 NSaved=   4.
 NSaved= 4 IEnMin= 4 EnMin= -92.8880354457695     IErMin= 4 ErrMin= 2.16D-04
 ErrMax= 2.16D-04  0.00D+00 EMaxC= 1.00D-01 BMatC= 3.43D-06 BMatP= 1.98D-05
 IDIUse=3 WtCom= 9.98D-01 WtEn= 2.16D-03
 Coeff-Com:  0.257D-02-0.563D-01 0.184D+00 0.870D+00
 Coeff-En:   0.000D+00 0.000D+00 0.000D+00 0.100D+01
 Coeff:      0.256D-02-0.562D-01 0.184D+00 0.870D+00
 Gap=     0.528 Goal=   None    Shift=    0.000
 RMSDP=5.12D-05 MaxDP=6.82D-04 DE=-2.40D-05 OVMax= 8.59D-04

 Cycle   5  Pass 1  IDiag  1:
 E= -92.8880389815400     Delta-E=       -0.000003535770 Rises=F Damp=F
 DIIS: error= 1.16D-04 at cycle   5 NSaved=   5.
 NSaved= 5 IEnMin= 5 EnMin= -92.8880389815400     IErMin= 5 ErrMin= 1.16D-04
 ErrMax= 1.16D-04  0.00D+00 EMaxC= 1.00D-01 BMatC= 7.19D-07 BMatP= 3.43D-06
 IDIUse=3 WtCom= 9.99D-01 WtEn= 1.16D-03
 Coeff-Com:  0.263D-02-0.332D-01-0.469D-01 0.321D+00 0.756D+00
 Coeff-En:   0.000D+00 0.000D+00 0.000D+00 0.000D+00 0.100D+01
 Coeff:      0.262D-02-0.332D-01-0.468D-01 0.321D+00 0.756D+00
 Gap=     0.528 Goal=   None    Shift=    0.000
 RMSDP=1.50D-05 MaxDP=1.94D-04 DE=-3.54D-06 OVMax= 3.01D-04

 Cycle   6  Pass 1  IDiag  1:
 E= -92.8880397034116     Delta-E=       -0.000000721872 Rises=F Damp=F
 DIIS: error= 1.39D-05 at cycle   6 NSaved=   6.
 NSaved= 6 IEnMin= 6 EnMin= -92.8880397034116     IErMin= 6 ErrMin= 1.39D-05
 ErrMax= 1.39D-05  0.00D+00 EMaxC= 1.00D-01 BMatC= 1.01D-08 BMatP= 7.19D-07
 IDIUse=1 WtCom= 1.00D+00 WtEn= 0.00D+00
 Coeff-Com: -0.204D-03 0.379D-02-0.395D-02-0.627D-01-0.535D-02 0.107D+01
 Coeff:     -0.204D-03 0.379D-02-0.395D-02-0.627D-01-0.535D-02 0.107D+01
 Gap=     0.528 Goal=   None    Shift=    0.000
 RMSDP=3.07D-06 MaxDP=4.31D-05 DE=-7.22D-07 OVMax= 6.61D-05

 Cycle   7  Pass 1  IDiag  1:
 E= -92.8880397200587     Delta-E=       -0.000000016647 Rises=F Damp=F
 DIIS: error= 3.11D-06 at cycle   7 NSaved=   7.
 NSaved= 7 IEnMin= 7 EnMin= -92.8880397200587     IErMin= 7 ErrMin= 3.11D-06
 ErrMax= 3.11D-06  0.00D+00 EMaxC= 1.00D-01 BMatC= 4.41D-10 BMatP= 1.01D-08
 IDIUse=1 WtCom= 1.00D+00 WtEn= 0.00D+00
 Coeff-Com: -0.134D-04-0.116D-03 0.242D-02 0.365D-02-0.888D-02-0.312D+00
 Coeff-Com:  0.132D+01
 Coeff:     -0.134D-04-0.116D-03 0.242D-02 0.365D-02-0.888D-02-0.312D+00
 Coeff:      0.132D+01
 Gap=     0.528 Goal=   None    Shift=    0.000
 RMSDP=7.32D-07 MaxDP=1.18D-05 DE=-1.66D-08 OVMax= 1.88D-05

 Cycle   8  Pass 1  IDiag  1:
 E= -92.8880397209993     Delta-E=       -0.000000000941 Rises=F Damp=F
 DIIS: error= 6.34D-07 at cycle   8 NSaved=   8.
 NSaved= 8 IEnMin= 8 EnMin= -92.8880397209993     IErMin= 8 ErrMin= 6.34D-07
 ErrMax= 6.34D-07  0.00D+00 EMaxC= 1.00D-01 BMatC= 1.76D-11 BMatP= 4.41D-10
 IDIUse=1 WtCom= 1.00D+00 WtEn= 0.00D+00
 Coeff-Com:  0.829D-05-0.835D-04-0.676D-03 0.343D-03 0.664D-02 0.632D-01
 Coeff-Com: -0.431D+00 0.136D+01
 Coeff:      0.829D-05-0.835D-04-0.676D-03 0.343D-03 0.664D-02 0.632D-01
 Coeff:     -0.431D+00 0.136D+01
 Gap=     0.528 Goal=   None    Shift=    0.000
 RMSDP=1.67D-07 MaxDP=2.09D-06 DE=-9.41D-10 OVMax= 2.60D-06

 Cycle   9  Pass 1  IDiag  1:
 E= -92.8880397210290     Delta-E=       -0.000000000030 Rises=F Damp=F
 DIIS: error= 1.13D-07 at cycle   9 NSaved=   9.
 NSaved= 9 IEnMin= 9 EnMin= -92.8880397210290     IErMin= 9 ErrMin= 1.13D-07
 ErrMax= 1.13D-07  0.00D+00 EMaxC= 1.00D-01 BMatC= 3.44D-13 BMatP= 1.76D-11
 IDIUse=1 WtCom= 1.00D+00 WtEn= 0.00D+00
 Coeff-Com: -0.278D-05 0.344D-04 0.189D-03-0.327D-03-0.170D-02-0.161D-01
 Coeff-Com:  0.123D+00-0.469D+00 0.136D+01
 Coeff:     -0.278D-05 0.344D-04 0.189D-03-0.327D-03-0.170D-02-0.161D-01
 Coeff:      0.123D+00-0.469D+00 0.136D+01
 Gap=     0.528 Goal=   None    Shift=    0.000
 RMSDP=3.08D-08 MaxDP=3.24D-07 DE=-2.97D-11 OVMax= 4.19D-07

 Cycle  10  Pass 1  IDiag  1:
 E= -92.8880397210295     Delta-E=        0.000000000000 Rises=F Damp=F
 DIIS: error= 1.23D-08 at cycle  10 NSaved=  10.
 NSaved=10 IEnMin=10 EnMin= -92.8880397210295     IErMin=10 ErrMin= 1.23D-08
 ErrMax= 1.23D-08  0.00D+00 EMaxC= 1.00D-01 BMatC= 4.42D-15 BMatP= 3.44D-13
 IDIUse=1 WtCom= 1.00D+00 WtEn= 0.00D+00
 Coeff-Com:  0.720D-06-0.938D-05-0.457D-04 0.994D-04 0.434D-03 0.342D-02
 Coeff-Com: -0.286D-01 0.118D+00-0.433D+00 0.134D+01
 Coeff:      0.720D-06-0.938D-05-0.457D-04 0.994D-04 0.434D-03 0.342D-02
 Coeff:     -0.286D-01 0.118D+00-0.433D+00 0.134D+01
 Gap=     0.528 Goal=   None    Shift=    0.000
 RMSDP=3.12D-09 MaxDP=5.26D-08 DE=-4.83D-13 OVMax= 5.89D-08

 SCF Done:  E(RHF) =  -92.8880397210     A.U. after   10 cycles
            NFock= 10  Conv=0.31D-08     -V/T= 2.0021
 KE= 9.269574581444D+01 PE=-2.654672692370D+02 EE= 5.583850179990D+01
 Leave Link  502 at Thu Aug 31 18:54:09 2023, MaxMem= 17179869184 cpu:         5.4
 (Enter /opt/local/g09/l801.exe)
 Windowed orbitals will be sorted by symmetry type.
 ExpMin= 2.97D-02 ExpMax= 9.05D+03 ExpMxC= 3.09D+02 IAcc=3 IRadAn=         5 AccDes= 0.00D+00
 HarFok:  IExCor=  205 AccDes= 0.00D+00 IRadAn=         5 IDoV=-2 UseB2=F ITyADJ=14
 ICtDFT= 12500011 ScaDFX=  1.000000  1.000000  1.000000  1.000000
 Largest valence mixing into a core orbital is  1.11D-04
 Largest core mixing into a valence orbital is  4.01D-05
 Range of M.O.s used for correlation:     3    55
 NBasis=    55 NAE=     7 NBE=     7 NFC=     2 NFV=     0
 NROrb=     53 NOA=     5 NOB=     5 NVA=    48 NVB=    48

 **** Warning!!: The largest alpha MO coefficient is  0.13563809D+02

 Leave Link  801 at Thu Aug 31 18:54:09 2023, MaxMem= 17179869184 cpu:         1.3
 (Enter /opt/local/g09/l804.exe)
 Closed-shell transformation, MDV= 17179869184 ITran=4 ISComp=2.
 Semi-Direct transformation.
 ModeAB=           2 MOrb=             5 LenV=   17179650041
 LASXX=        90889 LTotXX=       90889 LenRXX=       90889
 LTotAB=       97736 MaxLAS=      469050 LenRXY=      469050
 NonZer=      491310 LenScr=     1473536 LnRSAI=           0
 LnScr1=           0 LExtra=           0 Total=      2033475
 MaxDsk=          -1 SrtSym=           F ITran=            4
 DoSDTr:  NPSUse= 32
 JobTyp=0 Pass  1:  I=   1 to   5.
 (rs|ai) integrals will be sorted in core.
 Complete sort for first half transformation.
 First half transformation complete.
 Complete sort for second half transformation.
 Second half transformation complete.
 Spin components of T(2) and E(2):
     alpha-alpha T2 =       0.1464184190D-01 E2=     -0.3733603551D-01
     alpha-beta  T2 =       0.8367173648D-01 E2=     -0.2181324420D+00
     beta-beta   T2 =       0.1464184190D-01 E2=     -0.3733603551D-01
 ANorm=    0.1054967023D+01
 E2 =    -0.2928045131D+00 EUMP2 =    -0.93180844234080D+02
 Leave Link  804 at Thu Aug 31 18:54:09 2023, MaxMem= 17179869184 cpu:         5.5
 (Enter /opt/local/g09/l913.exe)
 CIDS:  MDV= 17179869184.
 Frozen-core window:  NFC=   2 NFV=   0.
 IFCWin=0 IBDFC=1 NFBD=     0     0 NFCmp=     0     0 NFFFC=     0     0
 Using DD3R+UMP44R for 1st iteration, S=T.
 Using DD4RQ for 2nd and later iterations.
 Keep R2 and R3 ints in memory in symmetry-blocked form, NReq=2012955.
 FoFCou: FMM=F IPFlag=           0 FMFlag=           0 FMFlg1=           0
         NFxFlg=           0 DoJE=F BraDBF=F KetDBF=F FulRan=T
         wScrn=  0.000000 ICntrl=     600 IOpCl=  0 I1Cent=           0 NGrid=           0
         NMat0=    1 NMatS0=   1540 NMatT0=    0 NMatD0=    1 NMtDS0=    0 NMtDT0=    0
 Petite list used in FoFCou.
 CCSD(T)
 =======
 Iterations=  50 Convergence= 0.100D-06
 Iteration Nr.   1
 **********************
 DD1Dir will call FoFMem   1 times, MxPair=        30
 NAB=    15 NAA=     0 NBB=     0.
 MP4(R+Q)=  0.68951925D-02
 Maximum subspace dimension=  5
 Norm of the A-vectors is  3.5221385D-01 conv= 1.00D-05.
 RLE energy=       -0.2886518518
 E3=       -0.27946727D-02        EUMP3=      -0.93183638907D+02
 E4(DQ)=   -0.24017268D-02        UMP4(DQ)=   -0.93186040634D+02
 E4(SDQ)=  -0.60998205D-02        UMP4(SDQ)=  -0.93189738727D+02
 VARIATIONAL ENERGIES WITH THE FIRST-ORDER WAVEFUNCTION:
 DE(Corr)= -0.28859215     E(Corr)=     -93.176631873    
 NORM(A)=   0.10542535D+01
 Iteration Nr.   2
 **********************
 DD1Dir will call FoFMem   1 times, MxPair=        30
 NAB=    15 NAA=     0 NBB=     0.
 Norm of the A-vectors is  1.1512794D-01 conv= 1.00D-05.
 RLE energy=       -0.3005509977
 DE(Corr)= -0.29912163     E(CORR)=     -93.187161348     Delta=-1.05D-02
 NORM(A)=   0.10605049D+01
 Iteration Nr.   3
 **********************
 DD1Dir will call FoFMem   1 times, MxPair=        30
 NAB=    15 NAA=     0 NBB=     0.
 Norm of the A-vectors is  3.9033891D-02 conv= 1.00D-05.
 RLE energy=       -0.3011747518
 DE(Corr)= -0.30027991     E(CORR)=     -93.188319627     Delta=-1.16D-03
 NORM(A)=   0.10620314D+01
 Iteration Nr.   4
 **********************
 DD1Dir will call FoFMem   1 times, MxPair=        30
 NAB=    15 NAA=     0 NBB=     0.
 Norm of the A-vectors is  1.3460641D-02 conv= 1.00D-05.
 RLE energy=       -0.3014190238
 DE(Corr)= -0.30131259     E(CORR)=     -93.189352312     Delta=-1.03D-03
 NORM(A)=   0.10624542D+01
 Iteration Nr.   5
 **********************
 DD1Dir will call FoFMem   1 times, MxPair=        30
 NAB=    15 NAA=     0 NBB=     0.
 Norm of the A-vectors is  4.0078550D-03 conv= 1.00D-05.
 RLE energy=       -0.3014623920
 DE(Corr)= -0.30143224     E(CORR)=     -93.189471957     Delta=-1.20D-04
 NORM(A)=   0.10625360D+01
 Iteration Nr.   6
 **********************
 DD1Dir will call FoFMem   1 times, MxPair=        30
 NAB=    15 NAA=     0 NBB=     0.
 Norm of the A-vectors is  1.0790383D-03 conv= 1.00D-05.
 RLE energy=       -0.3014434192
 DE(Corr)= -0.30145076     E(CORR)=     -93.189490482     Delta=-1.85D-05
 NORM(A)=   0.10625292D+01
 Iteration Nr.   7
 **********************
 DD1Dir will call FoFMem   1 times, MxPair=        30
 NAB=    15 NAA=     0 NBB=     0.
 Norm of the A-vectors is  3.0652675D-04 conv= 1.00D-05.
 RLE energy=       -0.3014503229
 DE(Corr)= -0.30145149     E(CORR)=     -93.189491213     Delta=-7.30D-07
 NORM(A)=   0.10625307D+01
 Iteration Nr.   8
 **********************
 DD1Dir will call FoFMem   1 times, MxPair=        30
 NAB=    15 NAA=     0 NBB=     0.
 Norm of the A-vectors is  1.0780043D-04 conv= 1.00D-05.
 RLE energy=       -0.3014504946
 DE(Corr)= -0.30145069     E(CORR)=     -93.189490409     Delta= 8.03D-07
 NORM(A)=   0.10625306D+01
 Iteration Nr.   9
 **********************
 DD1Dir will call FoFMem   1 times, MxPair=        30
 NAB=    15 NAA=     0 NBB=     0.
 Norm of the A-vectors is  3.2589007D-05 conv= 1.00D-05.
 RLE energy=       -0.3014509072
 DE(Corr)= -0.30145100     E(CORR)=     -93.189490717     Delta=-3.08D-07
 NORM(A)=   0.10625308D+01
 Iteration Nr.  10
 **********************
 DD1Dir will call FoFMem   1 times, MxPair=        30
 NAB=    15 NAA=     0 NBB=     0.
 Norm of the A-vectors is  1.1770276D-05 conv= 1.00D-05.
 RLE energy=       -0.3014511525
 DE(Corr)= -0.30145111     E(CORR)=     -93.189490829     Delta=-1.12D-07
 NORM(A)=   0.10625310D+01
 Iteration Nr.  11
 **********************
 DD1Dir will call FoFMem   1 times, MxPair=        30
 NAB=    15 NAA=     0 NBB=     0.
 Norm of the A-vectors is  4.2690492D-06 conv= 1.00D-05.
 RLE energy=       -0.3014512069
 DE(Corr)= -0.30145118     E(CORR)=     -93.189490904     Delta=-7.44D-08
 NORM(A)=   0.10625311D+01
 CI/CC converged in   11 iterations to DelEn=-7.44D-08 Conv= 1.00D-07 ErrA1= 4.27D-06 Conv= 1.00D-05
 T1 Diagnostic =     0.01373029
 Largest amplitude= 4.46D-02
 IPart= 12 IA=    4   12.23% done.
 IPart= 10 IA=    7   23.67% done.
 IPart=  2 IA=    9   30.85% done.
 IPart= 17 IA=   12   40.96% done.
 IPart= 31 IA=   15   50.27% done.
 IPart=  4 IA=   19   61.44% done.
 IPart= 13 IA=   23   71.19% done.
 IPart=  9 IA=   28   81.38% done.
 IPart= 21 IA=   34   90.69% done.
 Time for triples=       15.64 seconds.
 T4(CCSD)= -0.13779038D-01
 T5(CCSD)=  0.63195061D-03
 CCSD(T)= -0.93202637991D+02
 Discarding MO integrals.
 Leave Link  913 at Thu Aug 31 18:54:10 2023, MaxMem= 17179869184 cpu:        38.9
 (Enter /opt/local/g09/l601.exe)
 Copying SCF densities to generalized density rwf, IOpCl= 0 IROHF=0.

 **********************************************************************

            Population analysis using the SCF density.

 **********************************************************************

 Orbital symmetries:
       Occupied  (SG) (SG) (SG) (SG) (SG) (PI) (PI)
       Virtual   (SG) (SG) (PI) (PI) (SG) (PI) (PI) (SG) (PI) (PI)
                 (SG) (SG) (PI) (PI) (DLTA) (DLTA) (SG) (SG) (PI)
                 (PI) (SG) (DLTA) (DLTA) (PI) (PI) (SG) (PI) (PI)
                 (SG) (SG) (SG) (PI) (PI) (DLTA) (DLTA) (PI) (PI)
                 (SG) (PI) (PI) (SG) (DLTA) (DLTA) (SG) (PI) (PI)
                 (SG) (SG)
 The electronic state is 1-SG.
 Alpha  occ. eigenvalues --  -15.60901 -11.30120  -1.24505  -0.81223  -0.58177
 Alpha  occ. eigenvalues --   -0.49900  -0.49900
 Alpha virt. eigenvalues --    0.02893   0.08254   0.08439   0.08439   0.15715
 Alpha virt. eigenvalues --    0.16161   0.16161   0.18198   0.24664   0.24664
 Alpha virt. eigenvalues --    0.27114   0.33974   0.41510   0.41510   0.43170
 Alpha virt. eigenvalues --    0.43170   0.49801   0.57427   0.65237   0.65237
 Alpha virt. eigenvalues --    0.76566   0.82147   0.82147   0.82262   0.82262
 Alpha virt. eigenvalues --    0.87215   1.00225   1.00225   1.09658   1.30897
 Alpha virt. eigenvalues --    1.52149   1.59128   1.59128   1.63568   1.63568
 Alpha virt. eigenvalues --    1.68905   1.68905   1.90791   2.22833   2.22833
 Alpha virt. eigenvalues --    2.34424   2.58387   2.58387   2.63077   2.97076
 Alpha virt. eigenvalues --    2.97076   3.43039   3.75799
          Condensed to atoms (all electrons):
               1          2          3
     1  N    6.717714   0.680600   0.019483
     2  C    0.680600   4.872142   0.094573
     3  H    0.019483   0.094573   0.820834
 Mulliken charges:
               1
     1  N   -0.417796
     2  C    0.352686
     3  H    0.065111
 Sum of Mulliken charges =   0.00000
 Mulliken charges with hydrogens summed into heavy atoms:
               1
     1  N   -0.417796
     2  C    0.417796
 Electronic spatial extent (au):  <R**2>=             49.4727
 Charge=              0.0000 electrons
 Dipole moment (field-independent basis, Debye):
    X=              0.0000    Y=              0.0000    Z=             -3.2910  Tot=              3.2910
 Quadrupole moment (field-independent basis, Debye-Ang):
   XX=            -11.9558   YY=            -11.9558   ZZ=             -9.6160
   XY=              0.0000   XZ=              0.0000   YZ=              0.0000
 Traceless Quadrupole moment (field-independent basis, Debye-Ang):
   XX=             -0.7799   YY=             -0.7799   ZZ=              1.5599
   XY=              0.0000   XZ=              0.0000   YZ=              0.0000
 Octapole moment (field-independent basis, Debye-Ang**2):
  XXX=              0.0000  YYY=              0.0000  ZZZ=             -8.1107  XYY=              0.0000
  XXY=              0.0000  XXZ=             -0.4504  XZZ=              0.0000  YZZ=              0.0000
  YYZ=             -0.4504  XYZ=              0.0000
 Hexadecapole moment (field-independent basis, Debye-Ang**3):
 XXXX=            -12.4769 YYYY=            -12.4769 ZZZZ=            -35.0919 XXXY=              0.0000
 XXXZ=              0.0000 YYYX=              0.0000 YYYZ=              0.0000 ZZZX=              0.0000
 ZZZY=              0.0000 XXYY=             -4.1590 XXZZ=             -9.1670 YYZZ=             -9.1670
 XXYZ=              0.0000 YYXZ=              0.0000 ZZXY=              0.0000
 N-N= 2.404498190167D+01 E-N=-2.654672692356D+02  KE= 9.269574581444D+01
 Symmetry A1   KE= 8.732955367392D+01
 Symmetry A2   KE= 1.186748348152D-54
 Symmetry B1   KE= 2.683096070262D+00
 Symmetry B2   KE= 2.683096070262D+00
 Leave Link  601 at Thu Aug 31 18:54:11 2023, MaxMem= 17179869184 cpu:         5.9
 (Enter /opt/local/g09/l9999.exe)
 1\1\GINC-N216\SP\RCCSD(T)-FC\Aug-CC-pVDZ\C1H1N1\XIZK\31-Aug-2023\0\\#p
  CCSD(T,T1Diag)/aug-cc-pvdz geom=check guess=read\\Title Card Required
 \\0,1\N,0,-0.5709300026,0.,0.\C,0,0.5753337745,0.,0.\H,0,1.6405962281,
 0.,0.\\Version=EM64L-G09RevD.01\State=1-SG\HF=-92.8880397\MP2=-93.1808
 442\MP3=-93.1836389\MP4D=-93.1929358\MP4DQ=-93.1860406\MP4SDQ=-93.1897
 387\CCSD=-93.1894909\CCSD(T)=-93.202638\RMSD=3.119e-09\PG=C*V [C*(H1C1
 N1)]\\@


 IF I HAVE SEEN FARTHER, IT IS BY STANDING ON THE
 SHOULDERS OF GIANTS. -- SIR ISAAC NEWTON
 Job cpu time:       0 days  0 hours  1 minutes 21.9 seconds.
 File lengths (MBytes):  RWF=     22 Int=      0 D2E=      0 Chk=      2 Scr=      1
 Normal termination of Gaussian 09 at Thu Aug 31 18:54:11 2023.
