 Entering Gaussian System, Link 0=g09
 Input=HCO_ccsdt_avdz.gjf
 Output=HCO_ccsdt_avdz.log
 Initial command:
 /opt/local/g09/l1.exe "/data/tmp/Gau-60838.inp" -scrdir="/data/tmp/"
 Entering Link 1 = /opt/local/g09/l1.exe PID=     60839.
  
 Copyright (c) 1988,1990,1992,1993,1995,1998,2003,2009,2013,
            Gaussian, Inc.  All Rights Reserved.
  
 This is part of the Gaussian(R) 09 program.  It is based on
 the Gaussian(R) 03 system (copyright 2003, Gaussian, Inc.),
 the Gaussian(R) 98 system (copyright 1998, Gaussian, Inc.),
 the Gaussian(R) 94 system (copyright 1995, Gaussian, Inc.),
 the Gaussian 92(TM) system (copyright 1992, Gaussian, Inc.),
 the Gaussian 90(TM) system (copyright 1990, Gaussian, Inc.),
 the Gaussian 88(TM) system (copyright 1988, Gaussian, Inc.),
 the Gaussian 86(TM) system (copyright 1986, Carnegie Mellon
 University), and the Gaussian 82(TM) system (copyright 1983,
 Carnegie Mellon University). Gaussian is a federally registered
 trademark of Gaussian, Inc.
  
 This software contains proprietary and confidential information,
 including trade secrets, belonging to Gaussian, Inc.
  
 This software is provided under written license and may be
 used, copied, transmitted, or stored only in accord with that
 written license.
  
 The following legend is applicable only to US Government
 contracts under FAR:
  
                    RESTRICTED RIGHTS LEGEND
  
 Use, reproduction and disclosure by the US Government is
 subject to restrictions as set forth in subparagraphs (a)
 and (c) of the Commercial Computer Software - Restricted
 Rights clause in FAR 52.227-19.
  
 Gaussian, Inc.
 340 Quinnipiac St., Bldg. 40, Wallingford CT 06492
  
  
 ---------------------------------------------------------------
 Warning -- This program may not be used in any manner that
 competes with the business of Gaussian, Inc. or will provide
 assistance to any competitor of Gaussian, Inc.  The licensee
 of this program is prohibited from giving any competitor of
 Gaussian, Inc. access to this program.  By using this program,
 the user acknowledges that Gaussian, Inc. is engaged in the
 business of creating and licensing software in the field of
 computational chemistry and represents and warrants to the
 licensee that it is not a competitor of Gaussian, Inc. and that
 it will not use this program in any manner prohibited above.
 ---------------------------------------------------------------
  

 Cite this work as:
 Gaussian 09, Revision D.01,
 M. J. Frisch, G. W. Trucks, H. B. Schlegel, G. E. Scuseria, 
 M. A. Robb, J. R. Cheeseman, G. Scalmani, V. Barone, B. Mennucci, 
 G. A. Petersson, H. Nakatsuji, M. Caricato, X. Li, H. P. Hratchian, 
 A. F. Izmaylov, J. Bloino, G. Zheng, J. L. Sonnenberg, M. Hada, 
 M. Ehara, K. Toyota, R. Fukuda, J. Hasegawa, M. Ishida, T. Nakajima, 
 Y. Honda, O. Kitao, H. Nakai, T. Vreven, J. A. Montgomery, Jr., 
 J. E. Peralta, F. Ogliaro, M. Bearpark, J. J. Heyd, E. Brothers, 
 K. N. Kudin, V. N. Staroverov, T. Keith, R. Kobayashi, J. Normand, 
 K. Raghavachari, A. Rendell, J. C. Burant, S. S. Iyengar, J. Tomasi, 
 M. Cossi, N. Rega, J. M. Millam, M. Klene, J. E. Knox, J. B. Cross, 
 V. Bakken, C. Adamo, J. Jaramillo, R. Gomperts, R. E. Stratmann, 
 O. Yazyev, A. J. Austin, R. Cammi, C. Pomelli, J. W. Ochterski, 
 R. L. Martin, K. Morokuma, V. G. Zakrzewski, G. A. Voth, 
 P. Salvador, J. J. Dannenberg, S. Dapprich, A. D. Daniels, 
 O. Farkas, J. B. Foresman, J. V. Ortiz, J. Cioslowski, 
 and D. J. Fox, Gaussian, Inc., Wallingford CT, 2013.
 
 ******************************************
 Gaussian 09:  EM64L-G09RevD.01 24-Apr-2013
                31-Aug-2023 
 ******************************************
 %nprocshared=32
 Will use up to   32 processors via shared memory.
 %mem=128GB
 %chk=HCO_ccsdt_avdz.chk
 ---------------------------------------------------
 #p CCSD(T,T1Diag)/aug-cc-pvdz geom=check guess=read
 ---------------------------------------------------
 1/29=2,38=1/1;
 2/12=2,40=1/2;
 3/5=16,7=10,11=9,14=-4,16=1,25=1,30=1,116=-2/1,2,3;
 4/5=1/1;
 5/5=2,38=6/2;
 8/6=4,9=120000,10=1/1,4;
 9/5=7,14=2,36=1/13;
 6/7=2,8=2,9=2,10=2/1;
 99/5=1,9=1/99;
 Leave Link    1 at Thu Aug 31 18:54:11 2023, MaxMem= 17179869184 cpu:         1.4
 (Enter /opt/local/g09/l101.exe)
 -------------------
 Title Card Required
 -------------------
 Structure from the checkpoint file:  "HCO_ccsdt_avdz.chk"
 Charge =  0 Multiplicity = 2
 Redundant internal coordinates found in file.
 H,0,3.823609559,-0.2825216168,0.
 C,0,2.8178012959,0.2198585602,0.
 O,0,1.7934656651,-0.3515027735,0.
 Recover connectivity data from disk.
 NAtoms=      3 NQM=        3 NQMF=       0 NMMI=      0 NMMIF=      0
                NMic=       0 NMicF=      0.
                    Isotopes and Nuclear Properties:
 (Nuclear quadrupole moments (NQMom) in fm**2, nuclear magnetic moments (NMagM)
  in nuclear magnetons)

  Atom         1           2           3
 IAtWgt=           1          12          16
 AtmWgt=   1.0078250  12.0000000  15.9949146
 NucSpn=           1           0           0
 AtZEff=  -1.0000000  -3.6000000  -5.6000000
 NQMom=    0.0000000   0.0000000   0.0000000
 NMagM=    2.7928460   0.0000000   0.0000000
 AtZNuc=   1.0000000   6.0000000   8.0000000
 Leave Link  101 at Thu Aug 31 18:54:11 2023, MaxMem= 17179869184 cpu:         3.6
 (Enter /opt/local/g09/l202.exe)
                          Input orientation:                          
 ---------------------------------------------------------------------
 Center     Atomic      Atomic             Coordinates (Angstroms)
 Number     Number       Type             X           Y           Z
 ---------------------------------------------------------------------
      1          1           0        3.823610   -0.282522    0.000000
      2          6           0        2.817801    0.219859    0.000000
      3          8           0        1.793466   -0.351503    0.000000
 ---------------------------------------------------------------------
                    Distance matrix (angstroms):
                    1          2          3
     1  H    0.000000
     2  C    1.124294   0.000000
     3  O    2.031315   1.172910   0.000000
 Stoichiometry    CHO(2)
 Framework group  CS[SG(CHO)]
 Deg. of freedom     3
 Full point group                 CS      NOp   2
 RotChk:  IX=0 Diff= 3.51D-16
 Largest Abelian subgroup         CS      NOp   2
 Largest concise Abelian subgroup C1      NOp   1
                         Standard orientation:                         
 ---------------------------------------------------------------------
 Center     Atomic      Atomic             Coordinates (Angstroms)
 Number     Number       Type             X           Y           Z
 ---------------------------------------------------------------------
      1          1           0       -0.866790    1.216983    0.000000
      2          6           0        0.061914    0.583307    0.000000
      3          8           0        0.061914   -0.589603    0.000000
 ---------------------------------------------------------------------
 Rotational constants (GHZ):    716.4746330     45.0443729     42.3799672
 Leave Link  202 at Thu Aug 31 18:54:11 2023, MaxMem= 17179869184 cpu:         0.9
 (Enter /opt/local/g09/l301.exe)
 Standard basis: Aug-CC-pVDZ (5D, 7F)
 Ernie: Thresh=  0.10000D-02 Tol=  0.10000D-05 Strict=F.
 Ernie:  4 primitive shells out of 57 were deleted.
 There are    43 symmetry adapted cartesian basis functions of A'  symmetry.
 There are    16 symmetry adapted cartesian basis functions of A"  symmetry.
 There are    39 symmetry adapted basis functions of A'  symmetry.
 There are    16 symmetry adapted basis functions of A"  symmetry.
    55 basis functions,    97 primitive gaussians,    59 cartesian basis functions
     8 alpha electrons        7 beta electrons
       nuclear repulsion energy        26.5641052902 Hartrees.
 IExCor=    0 DFT=F Ex=HF Corr=None ExCW=0 ScaHFX=  1.000000
 ScaDFX=  1.000000  1.000000  1.000000  1.000000 ScalE2=  1.000000  1.000000
 IRadAn=      0 IRanWt=     -1 IRanGd=            0 ICorTp=0 IEmpDi=  4
 NAtoms=    3 NActive=    3 NUniq=    3 SFac= 1.00D+00 NAtFMM=   60 NAOKFM=F Big=F
 Integral buffers will be    131072 words long.
 Raffenetti 2 integral format.
 Two-electron integral symmetry is turned on.
 Leave Link  301 at Thu Aug 31 18:54:11 2023, MaxMem= 17179869184 cpu:         0.6
 (Enter /opt/local/g09/l302.exe)
 NPDir=0 NMtPBC=     1 NCelOv=     1 NCel=       1 NClECP=     1 NCelD=      1
         NCelK=      1 NCelE2=     1 NClLst=     1 CellRange=     0.0.
 One-electron integrals computed using PRISM.
 NBasis=    55 RedAO= T EigKep=  1.42D-03  NBF=    39    16
 NBsUse=    55 1.00D-06 EigRej= -1.00D+00 NBFU=    39    16
 Leave Link  302 at Thu Aug 31 18:54:11 2023, MaxMem= 17179869184 cpu:         3.1
 (Enter /opt/local/g09/l303.exe)
 DipDrv:  MaxL=1.
 Leave Link  303 at Thu Aug 31 18:54:11 2023, MaxMem= 17179869184 cpu:         2.5
 (Enter /opt/local/g09/l401.exe)
 Initial guess from the checkpoint file:  "HCO_ccsdt_avdz.chk"
 B after Tr=     0.000000    0.000000    0.000000
         Rot=    1.000000    0.000000    0.000000    0.000000 Ang=   0.00 deg.
 Guess basis will be translated and rotated to current coordinates.
 JPrj=2 DoOrth=T DoCkMO=T.
 Initial guess orbital symmetries:
 Alpha Orbitals:
       Occupied  (A') (A') (A') (A') (A') (A') (A") (A')
       Virtual   (A") (A') (A') (A') (A") (A') (A') (A') (A') (A")
                 (A') (A") (A') (A") (A') (A") (A') (A') (A') (A')
                 (A") (A') (A") (A') (A') (A") (A') (A') (A') (A")
                 (A') (A") (A') (A') (A") (A") (A') (A") (A') (A')
                 (A') (A") (A') (A') (A') (A') (A')
 Beta  Orbitals:
       Occupied  (A') (A') (A') (A') (A') (A") (A')
       Virtual   (A') (A") (A') (A') (A") (A') (A') (A') (A') (A')
                 (A") (A') (A") (A') (A") (A') (A") (A') (A') (A')
                 (A') (A") (A') (A") (A') (A') (A") (A') (A') (A')
                 (A") (A') (A") (A') (A') (A") (A") (A') (A") (A')
                 (A') (A') (A") (A') (A') (A') (A') (A')
 The electronic state of the initial guess is 2-A'.
 Initial guess <Sx>= 0.0000 <Sy>= 0.0000 <Sz>= 0.5000 <S**2>= 0.7533 S= 0.5016
 Leave Link  401 at Thu Aug 31 18:54:12 2023, MaxMem= 17179869184 cpu:         3.2
 (Enter /opt/local/g09/l502.exe)
 UHF open shell SCF:
 Using DIIS extrapolation, IDIIS=  1040.
 Integral symmetry usage will be decided dynamically.
 Keep R1 and R2 ints in memory in symmetry-blocked form, NReq=2112007.
 IVT=       31346 IEndB=       31346 NGot= 17179869184 MDV= 17178604072
 LenX= 17178604072 LenY= 17178600150
 Requested convergence on RMS density matrix=1.00D-08 within 128 cycles.
 Requested convergence on MAX density matrix=1.00D-06.
 Requested convergence on             energy=1.00D-06.
 No special actions if energy rises.
 FoFCou: FMM=F IPFlag=           0 FMFlag=           0 FMFlg1=           0
         NFxFlg=           0 DoJE=F BraDBF=F KetDBF=F FulRan=T
         wScrn=  0.000000 ICntrl=     600 IOpCl=  0 I1Cent=           0 NGrid=           0
         NMat0=    1 NMatS0=   1540 NMatT0=    0 NMatD0=    1 NMtDS0=    0 NMtDT0=    0
 Petite list used in FoFCou.

 Cycle   1  Pass 1  IDiag  1:
 E= -113.253194029898    
 DIIS: error= 1.63D-02 at cycle   1 NSaved=   1.
 NSaved= 1 IEnMin= 1 EnMin= -113.253194029898     IErMin= 1 ErrMin= 1.63D-02
 ErrMax= 1.63D-02  0.00D+00 EMaxC= 1.00D-01 BMatC= 7.79D-02 BMatP= 7.79D-02
 IDIUse=3 WtCom= 8.37D-01 WtEn= 1.63D-01
 Coeff-Com:  0.100D+01
 Coeff-En:   0.100D+01
 Coeff:      0.100D+01
 Gap=     0.502 Goal=   None    Shift=    0.000
 Gap=     0.627 Goal=   None    Shift=    0.000
 GapD=    0.502 DampG=2.000 DampE=0.500 DampFc=1.0000 IDamp=-1.
 RMSDP=3.97D-03 MaxDP=4.73D-02              OVMax= 4.34D-02

 Cycle   2  Pass 1  IDiag  1:
 E= -113.265933508505     Delta-E=       -0.012739478606 Rises=F Damp=F
 DIIS: error= 2.97D-03 at cycle   2 NSaved=   2.
 NSaved= 2 IEnMin= 2 EnMin= -113.265933508505     IErMin= 2 ErrMin= 2.97D-03
 ErrMax= 2.97D-03  0.00D+00 EMaxC= 1.00D-01 BMatC= 3.09D-03 BMatP= 7.79D-02
 IDIUse=3 WtCom= 9.70D-01 WtEn= 2.97D-02
 Coeff-Com: -0.790D-01 0.108D+01
 Coeff-En:   0.000D+00 0.100D+01
 Coeff:     -0.767D-01 0.108D+01
 Gap=     0.426 Goal=   None    Shift=    0.000
 Gap=     0.564 Goal=   None    Shift=    0.000
 RMSDP=7.71D-04 MaxDP=9.23D-03 DE=-1.27D-02 OVMax= 1.64D-02

 Cycle   3  Pass 1  IDiag  1:
 E= -113.266878338084     Delta-E=       -0.000944829580 Rises=F Damp=F
 DIIS: error= 1.96D-03 at cycle   3 NSaved=   3.
 NSaved= 3 IEnMin= 3 EnMin= -113.266878338084     IErMin= 3 ErrMin= 1.96D-03
 ErrMax= 1.96D-03  0.00D+00 EMaxC= 1.00D-01 BMatC= 6.13D-04 BMatP= 3.09D-03
 IDIUse=3 WtCom= 9.80D-01 WtEn= 1.96D-02
 Coeff-Com: -0.352D-01 0.261D+00 0.774D+00
 Coeff-En:   0.000D+00 0.000D+00 0.100D+01
 Coeff:     -0.345D-01 0.256D+00 0.778D+00
 Gap=     0.425 Goal=   None    Shift=    0.000
 Gap=     0.564 Goal=   None    Shift=    0.000
 RMSDP=2.28D-04 MaxDP=3.82D-03 DE=-9.45D-04 OVMax= 9.97D-03

 Cycle   4  Pass 1  IDiag  1:
 E= -113.267081737603     Delta-E=       -0.000203399518 Rises=F Damp=F
 DIIS: error= 9.09D-04 at cycle   4 NSaved=   4.
 NSaved= 4 IEnMin= 4 EnMin= -113.267081737603     IErMin= 4 ErrMin= 9.09D-04
 ErrMax= 9.09D-04  0.00D+00 EMaxC= 1.00D-01 BMatC= 1.96D-04 BMatP= 6.13D-04
 IDIUse=3 WtCom= 9.91D-01 WtEn= 9.09D-03
 Coeff-Com:  0.371D-02-0.136D+00 0.237D+00 0.895D+00
 Coeff-En:   0.000D+00 0.000D+00 0.000D+00 0.100D+01
 Coeff:      0.368D-02-0.135D+00 0.235D+00 0.896D+00
 Gap=     0.425 Goal=   None    Shift=    0.000
 Gap=     0.561 Goal=   None    Shift=    0.000
 RMSDP=1.36D-04 MaxDP=1.75D-03 DE=-2.03D-04 OVMax= 4.91D-03

 Cycle   5  Pass 1  IDiag  1:
 E= -113.267161231192     Delta-E=       -0.000079493590 Rises=F Damp=F
 DIIS: error= 5.46D-04 at cycle   5 NSaved=   5.
 NSaved= 5 IEnMin= 5 EnMin= -113.267161231192     IErMin= 5 ErrMin= 5.46D-04
 ErrMax= 5.46D-04  0.00D+00 EMaxC= 1.00D-01 BMatC= 2.58D-05 BMatP= 1.96D-04
 IDIUse=3 WtCom= 9.95D-01 WtEn= 5.46D-03
 Coeff-Com:  0.600D-02-0.475D-01-0.551D-01-0.565D-01 0.115D+01
 Coeff-En:   0.000D+00 0.000D+00 0.000D+00 0.000D+00 0.100D+01
 Coeff:      0.596D-02-0.473D-01-0.548D-01-0.562D-01 0.115D+01
 Gap=     0.426 Goal=   None    Shift=    0.000
 Gap=     0.562 Goal=   None    Shift=    0.000
 RMSDP=8.79D-05 MaxDP=1.97D-03 DE=-7.95D-05 OVMax= 4.87D-03

 Cycle   6  Pass 1  IDiag  1:
 E= -113.267192162263     Delta-E=       -0.000030931070 Rises=F Damp=F
 DIIS: error= 3.44D-04 at cycle   6 NSaved=   6.
 NSaved= 6 IEnMin= 6 EnMin= -113.267192162263     IErMin= 6 ErrMin= 3.44D-04
 ErrMax= 3.44D-04  0.00D+00 EMaxC= 1.00D-01 BMatC= 1.33D-05 BMatP= 2.58D-05
 IDIUse=3 WtCom= 9.97D-01 WtEn= 3.44D-03
 Coeff-Com: -0.523D-02 0.642D-01 0.453D-01-0.179D+00-0.912D+00 0.199D+01
 Coeff-En:   0.000D+00 0.000D+00 0.000D+00 0.000D+00 0.000D+00 0.100D+01
 Coeff:     -0.522D-02 0.640D-01 0.452D-01-0.178D+00-0.909D+00 0.198D+01
 Gap=     0.426 Goal=   None    Shift=    0.000
 Gap=     0.563 Goal=   None    Shift=    0.000
 RMSDP=9.81D-05 MaxDP=2.67D-03 DE=-3.09D-05 OVMax= 5.66D-03

 Cycle   7  Pass 1  IDiag  1:
 E= -113.267218612074     Delta-E=       -0.000026449811 Rises=F Damp=F
 DIIS: error= 2.91D-04 at cycle   7 NSaved=   7.
 NSaved= 7 IEnMin= 7 EnMin= -113.267218612074     IErMin= 7 ErrMin= 2.91D-04
 ErrMax= 2.91D-04  0.00D+00 EMaxC= 1.00D-01 BMatC= 6.15D-06 BMatP= 1.33D-05
 IDIUse=3 WtCom= 9.97D-01 WtEn= 2.91D-03
 Coeff-Com:  0.202D-02-0.373D-01 0.627D-03 0.188D+00 0.355D+00-0.197D+01
 Coeff-Com:  0.246D+01
 Coeff-En:   0.000D+00 0.000D+00 0.000D+00 0.000D+00 0.000D+00 0.000D+00
 Coeff-En:   0.100D+01
 Coeff:      0.202D-02-0.372D-01 0.625D-03 0.187D+00 0.354D+00-0.196D+01
 Coeff:      0.245D+01
 Gap=     0.426 Goal=   None    Shift=    0.000
 Gap=     0.564 Goal=   None    Shift=    0.000
 RMSDP=1.10D-04 MaxDP=3.08D-03 DE=-2.64D-05 OVMax= 5.99D-03

 Cycle   8  Pass 1  IDiag  1:
 E= -113.267237755326     Delta-E=       -0.000019143252 Rises=F Damp=F
 DIIS: error= 2.10D-04 at cycle   8 NSaved=   8.
 NSaved= 8 IEnMin= 8 EnMin= -113.267237755326     IErMin= 8 ErrMin= 2.10D-04
 ErrMax= 2.10D-04  0.00D+00 EMaxC= 1.00D-01 BMatC= 2.25D-06 BMatP= 6.15D-06
 IDIUse=3 WtCom= 9.98D-01 WtEn= 2.10D-03
 Coeff-Com:  0.865D-04 0.457D-02-0.101D-01-0.489D-01 0.384D-01 0.690D+00
 Coeff-Com: -0.176D+01 0.208D+01
 Coeff-En:   0.000D+00 0.000D+00 0.000D+00 0.000D+00 0.000D+00 0.000D+00
 Coeff-En:   0.000D+00 0.100D+01
 Coeff:      0.864D-04 0.456D-02-0.100D-01-0.488D-01 0.383D-01 0.688D+00
 Coeff:     -0.175D+01 0.208D+01
 Gap=     0.426 Goal=   None    Shift=    0.000
 Gap=     0.565 Goal=   None    Shift=    0.000
 RMSDP=7.04D-05 MaxDP=2.11D-03 DE=-1.91D-05 OVMax= 3.75D-03

 Cycle   9  Pass 1  IDiag  1:
 E= -113.267245146422     Delta-E=       -0.000007391097 Rises=F Damp=F
 DIIS: error= 1.31D-04 at cycle   9 NSaved=   9.
 NSaved= 9 IEnMin= 9 EnMin= -113.267245146422     IErMin= 9 ErrMin= 1.31D-04
 ErrMax= 1.31D-04  0.00D+00 EMaxC= 1.00D-01 BMatC= 1.07D-06 BMatP= 2.25D-06
 IDIUse=3 WtCom= 9.99D-01 WtEn= 1.31D-03
 Coeff-Com: -0.981D-03 0.798D-02 0.145D-01 0.167D-01-0.211D+00-0.412D+00
 Coeff-Com:  0.209D+01-0.378D+01 0.328D+01
 Coeff-En:   0.000D+00 0.000D+00 0.000D+00 0.000D+00 0.000D+00 0.000D+00
 Coeff-En:   0.000D+00 0.000D+00 0.100D+01
 Coeff:     -0.979D-03 0.797D-02 0.145D-01 0.167D-01-0.211D+00-0.412D+00
 Coeff:      0.209D+01-0.378D+01 0.328D+01
 Gap=     0.426 Goal=   None    Shift=    0.000
 Gap=     0.565 Goal=   None    Shift=    0.000
 RMSDP=6.52D-05 MaxDP=2.06D-03 DE=-7.39D-06 OVMax= 3.74D-03

 Cycle  10  Pass 1  IDiag  1:
 E= -113.267249703671     Delta-E=       -0.000004557249 Rises=F Damp=F
 DIIS: error= 7.94D-05 at cycle  10 NSaved=  10.
 NSaved=10 IEnMin=10 EnMin= -113.267249703671     IErMin=10 ErrMin= 7.94D-05
 ErrMax= 7.94D-05  0.00D+00 EMaxC= 1.00D-01 BMatC= 3.27D-07 BMatP= 1.07D-06
 IDIUse=1 WtCom= 1.00D+00 WtEn= 0.00D+00
 Coeff-Com:  0.938D-03-0.116D-01-0.750D-02 0.127D-01 0.218D+00-0.434D-01
 Coeff-Com: -0.106D+01 0.264D+01-0.335D+01 0.260D+01
 Coeff:      0.938D-03-0.116D-01-0.750D-02 0.127D-01 0.218D+00-0.434D-01
 Coeff:     -0.106D+01 0.264D+01-0.335D+01 0.260D+01
 Gap=     0.426 Goal=   None    Shift=    0.000
 Gap=     0.565 Goal=   None    Shift=    0.000
 RMSDP=5.01D-05 MaxDP=1.51D-03 DE=-4.56D-06 OVMax= 2.75D-03

 Cycle  11  Pass 1  IDiag  1:
 E= -113.267251195879     Delta-E=       -0.000001492208 Rises=F Damp=F
 DIIS: error= 1.95D-05 at cycle  11 NSaved=  11.
 NSaved=11 IEnMin=11 EnMin= -113.267251195879     IErMin=11 ErrMin= 1.95D-05
 ErrMax= 1.95D-05  0.00D+00 EMaxC= 1.00D-01 BMatC= 3.05D-08 BMatP= 3.27D-07
 IDIUse=1 WtCom= 1.00D+00 WtEn= 0.00D+00
 Coeff-Com: -0.368D-03 0.527D-02 0.208D-02-0.889D-02-0.944D-01 0.977D-01
 Coeff-Com:  0.270D+00-0.917D+00 0.141D+01-0.149D+01 0.172D+01
 Coeff:     -0.368D-03 0.527D-02 0.208D-02-0.889D-02-0.944D-01 0.977D-01
 Coeff:      0.270D+00-0.917D+00 0.141D+01-0.149D+01 0.172D+01
 Gap=     0.426 Goal=   None    Shift=    0.000
 Gap=     0.565 Goal=   None    Shift=    0.000
 RMSDP=9.64D-06 MaxDP=2.86D-04 DE=-1.49D-06 OVMax= 5.10D-04

 Cycle  12  Pass 1  IDiag  1:
 E= -113.267251266168     Delta-E=       -0.000000070289 Rises=F Damp=F
 DIIS: error= 3.23D-06 at cycle  12 NSaved=  12.
 NSaved=12 IEnMin=12 EnMin= -113.267251266168     IErMin=12 ErrMin= 3.23D-06
 ErrMax= 3.23D-06  0.00D+00 EMaxC= 1.00D-01 BMatC= 3.70D-09 BMatP= 3.05D-08
 IDIUse=1 WtCom= 1.00D+00 WtEn= 0.00D+00
 Coeff-Com:  0.538D-04-0.995D-03 0.791D-04 0.251D-02 0.136D-01-0.365D-01
 Coeff-Com:  0.193D-01 0.514D-01-0.173D+00 0.323D+00-0.806D+00 0.161D+01
 Coeff:      0.538D-04-0.995D-03 0.791D-04 0.251D-02 0.136D-01-0.365D-01
 Coeff:      0.193D-01 0.514D-01-0.173D+00 0.323D+00-0.806D+00 0.161D+01
 Gap=     0.426 Goal=   None    Shift=    0.000
 Gap=     0.565 Goal=   None    Shift=    0.000
 RMSDP=1.97D-06 MaxDP=4.60D-05 DE=-7.03D-08 OVMax= 8.27D-05

 Cycle  13  Pass 1  IDiag  1:
 E= -113.267251271003     Delta-E=       -0.000000004835 Rises=F Damp=F
 DIIS: error= 1.16D-06 at cycle  13 NSaved=  13.
 NSaved=13 IEnMin=13 EnMin= -113.267251271003     IErMin=13 ErrMin= 1.16D-06
 ErrMax= 1.16D-06  0.00D+00 EMaxC= 1.00D-01 BMatC= 3.67D-10 BMatP= 3.70D-09
 IDIUse=1 WtCom= 1.00D+00 WtEn= 0.00D+00
 Coeff-Com:  0.386D-04-0.487D-03-0.413D-03 0.668D-03 0.996D-02-0.394D-02
 Coeff-Com: -0.445D-01 0.115D+00-0.146D+00 0.112D+00 0.443D-02-0.459D+00
 Coeff-Com:  0.141D+01
 Coeff:      0.386D-04-0.487D-03-0.413D-03 0.668D-03 0.996D-02-0.394D-02
 Coeff:     -0.445D-01 0.115D+00-0.146D+00 0.112D+00 0.443D-02-0.459D+00
 Coeff:      0.141D+01
 Gap=     0.426 Goal=   None    Shift=    0.000
 Gap=     0.565 Goal=   None    Shift=    0.000
 RMSDP=5.41D-07 MaxDP=8.48D-06 DE=-4.83D-09 OVMax= 1.69D-05

 Cycle  14  Pass 1  IDiag  1:
 E= -113.267251271417     Delta-E=       -0.000000000414 Rises=F Damp=F
 DIIS: error= 6.34D-07 at cycle  14 NSaved=  14.
 NSaved=14 IEnMin=14 EnMin= -113.267251271417     IErMin=14 ErrMin= 6.34D-07
 ErrMax= 6.34D-07  0.00D+00 EMaxC= 1.00D-01 BMatC= 4.09D-11 BMatP= 3.67D-10
 IDIUse=1 WtCom= 1.00D+00 WtEn= 0.00D+00
 Coeff-Com: -0.208D-04 0.303D-03 0.122D-03-0.461D-03-0.537D-02 0.502D-02
 Coeff-Com:  0.171D-01-0.546D-01 0.807D-01-0.811D-01 0.782D-01 0.365D-01
 Coeff-Com: -0.633D+00 0.156D+01
 Coeff:     -0.208D-04 0.303D-03 0.122D-03-0.461D-03-0.537D-02 0.502D-02
 Coeff:      0.171D-01-0.546D-01 0.807D-01-0.811D-01 0.782D-01 0.365D-01
 Coeff:     -0.633D+00 0.156D+01
 Gap=     0.426 Goal=   None    Shift=    0.000
 Gap=     0.565 Goal=   None    Shift=    0.000
 RMSDP=2.13D-07 MaxDP=3.26D-06 DE=-4.14D-10 OVMax= 5.94D-06

 Cycle  15  Pass 1  IDiag  1:
 E= -113.267251271468     Delta-E=       -0.000000000051 Rises=F Damp=F
 DIIS: error= 2.11D-07 at cycle  15 NSaved=  15.
 NSaved=15 IEnMin=15 EnMin= -113.267251271468     IErMin=15 ErrMin= 2.11D-07
 ErrMax= 2.11D-07  0.00D+00 EMaxC= 1.00D-01 BMatC= 3.55D-12 BMatP= 4.09D-11
 IDIUse=1 WtCom= 1.00D+00 WtEn= 0.00D+00
 Coeff-Com:  0.972D-05-0.143D-03-0.386D-04 0.221D-03 0.237D-02-0.283D-02
 Coeff-Com: -0.580D-02 0.213D-01-0.336D-01 0.370D-01-0.456D-01 0.180D-01
 Coeff-Com:  0.234D+00-0.864D+00 0.164D+01
 Coeff:      0.972D-05-0.143D-03-0.386D-04 0.221D-03 0.237D-02-0.283D-02
 Coeff:     -0.580D-02 0.213D-01-0.336D-01 0.370D-01-0.456D-01 0.180D-01
 Coeff:      0.234D+00-0.864D+00 0.164D+01
 Gap=     0.426 Goal=   None    Shift=    0.000
 Gap=     0.565 Goal=   None    Shift=    0.000
 RMSDP=6.01D-08 MaxDP=1.10D-06 DE=-5.06D-11 OVMax= 2.51D-06

 Cycle  16  Pass 1  IDiag  1:
 E= -113.267251271472     Delta-E=       -0.000000000004 Rises=F Damp=F
 DIIS: error= 4.25D-08 at cycle  16 NSaved=  16.
 NSaved=16 IEnMin=16 EnMin= -113.267251271472     IErMin=16 ErrMin= 4.25D-08
 ErrMax= 4.25D-08  0.00D+00 EMaxC= 1.00D-01 BMatC= 2.74D-13 BMatP= 3.55D-12
 IDIUse=1 WtCom= 1.00D+00 WtEn= 0.00D+00
 Coeff-Com: -0.364D-05 0.547D-04 0.338D-05-0.885D-04-0.792D-03 0.120D-02
 Coeff-Com:  0.141D-02-0.655D-02 0.111D-01-0.132D-01 0.188D-01-0.153D-01
 Coeff-Com: -0.688D-01 0.333D+00-0.874D+00 0.161D+01
 Coeff:     -0.364D-05 0.547D-04 0.338D-05-0.885D-04-0.792D-03 0.120D-02
 Coeff:      0.141D-02-0.655D-02 0.111D-01-0.132D-01 0.188D-01-0.153D-01
 Coeff:     -0.688D-01 0.333D+00-0.874D+00 0.161D+01
 Gap=     0.426 Goal=   None    Shift=    0.000
 Gap=     0.565 Goal=   None    Shift=    0.000
 RMSDP=1.81D-08 MaxDP=3.02D-07 DE=-3.92D-12 OVMax= 5.90D-07

 Cycle  17  Pass 1  IDiag  1:
 E= -113.267251271472     Delta-E=        0.000000000000 Rises=F Damp=F
 DIIS: error= 9.10D-09 at cycle  17 NSaved=  17.
 NSaved=17 IEnMin=16 EnMin= -113.267251271472     IErMin=17 ErrMin= 9.10D-09
 ErrMax= 9.10D-09  0.00D+00 EMaxC= 1.00D-01 BMatC= 1.91D-14 BMatP= 2.74D-13
 IDIUse=1 WtCom= 1.00D+00 WtEn= 0.00D+00
 Coeff-Com:  0.132D-05-0.201D-04 0.124D-05 0.296D-04 0.272D-03-0.461D-03
 Coeff-Com: -0.371D-03 0.209D-02-0.370D-02 0.460D-02-0.696D-02 0.694D-02
 Coeff-Com:  0.202D-01-0.113D+00 0.339D+00-0.831D+00 0.158D+01
 Coeff:      0.132D-05-0.201D-04 0.124D-05 0.296D-04 0.272D-03-0.461D-03
 Coeff:     -0.371D-03 0.209D-02-0.370D-02 0.460D-02-0.696D-02 0.694D-02
 Coeff:      0.202D-01-0.113D+00 0.339D+00-0.831D+00 0.158D+01
 Gap=     0.426 Goal=   None    Shift=    0.000
 Gap=     0.565 Goal=   None    Shift=    0.000
 RMSDP=3.57D-09 MaxDP=8.08D-08 DE= 2.84D-14 OVMax= 1.11D-07

 SCF Done:  E(UHF) =  -113.267251271     A.U. after   17 cycles
            NFock= 17  Conv=0.36D-08     -V/T= 2.0015
 <Sx>= 0.0000 <Sy>= 0.0000 <Sz>= 0.5000 <S**2>= 0.7651 S= 0.5075
 <L.S>= 0.000000000000E+00
 KE= 1.130940045458D+02 PE=-3.200859633476D+02 EE= 6.716060224010D+01
 Annihilation of the first spin contaminant:
 S**2 before annihilation     0.7651,   after     0.7502
 Leave Link  502 at Thu Aug 31 18:54:12 2023, MaxMem= 17179869184 cpu:         6.5
 (Enter /opt/local/g09/l801.exe)
 Windowed orbitals will be sorted by symmetry type.
 ExpMin= 2.97D-02 ExpMax= 1.17D+04 ExpMxC= 4.01D+02 IAcc=3 IRadAn=         5 AccDes= 0.00D+00
 HarFok:  IExCor=  205 AccDes= 0.00D+00 IRadAn=         5 IDoV=-2 UseB2=F ITyADJ=14
 ICtDFT= 12500011 ScaDFX=  1.000000  1.000000  1.000000  1.000000
 Largest valence mixing into a core orbital is  1.05D-04
 Largest core mixing into a valence orbital is  3.61D-05
 Largest valence mixing into a core orbital is  1.31D-04
 Largest core mixing into a valence orbital is  4.11D-05
 Range of M.O.s used for correlation:     3    55
 NBasis=    55 NAE=     8 NBE=     7 NFC=     2 NFV=     0
 NROrb=     53 NOA=     6 NOB=     5 NVA=    47 NVB=    48

 **** Warning!!: The largest alpha MO coefficient is  0.10127081D+02


 **** Warning!!: The largest beta MO coefficient is  0.10076482D+02

 Leave Link  801 at Thu Aug 31 18:54:12 2023, MaxMem= 17179869184 cpu:         3.0
 (Enter /opt/local/g09/l804.exe)
 Open-shell transformation, MDV= 17179869184 ITran=4 ISComp=2.
 Semi-Direct transformation.
 ModeAB=           2 MOrb=             6 LenV=   17179639849
 LASXX=       209374 LTotXX=      209374 LenRXX=      209374
 LTotAB=      226553 MaxLAS=      562860 LenRXY=      562860
 NonZer=      589572 LenScr=     1571840 LnRSAI=           0
 LnScr1=           0 LExtra=           0 Total=      2344074
 MaxDsk=          -1 SrtSym=           F ITran=            4
 DoSDTr:  NPSUse= 32
 JobTyp=1 Pass  1:  I=   1 to   6.
 (rs|ai) integrals will be sorted in core.
 Complete sort for first half transformation.
 First half transformation complete.
 Complete sort for second half transformation.
 Second half transformation complete.
 ModeAB=           2 MOrb=             5 LenV=   17179639849
 LASXX=       176407 LTotXX=      176407 LenRXX=      469050
 LTotAB=      148944 MaxLAS=      469050 LenRXY=      148944
 NonZer=      491310 LenScr=     1473536 LnRSAI=           0
 LnScr1=           0 LExtra=           0 Total=      2091530
 MaxDsk=          -1 SrtSym=           F ITran=            4
 DoSDTr:  NPSUse= 32
 JobTyp=2 Pass  1:  I=   1 to   5.
 (rs|ai) integrals will be sorted in core.
 Complete sort for first half transformation.
 First half transformation complete.
 Complete sort for second half transformation.
 Second half transformation complete.
 Spin components of T(2) and E(2):
     alpha-alpha T2 =       0.1259635281D-01 E2=     -0.4126691499D-01
     alpha-beta  T2 =       0.7298805933D-01 E2=     -0.2272881276D+00
     beta-beta   T2 =       0.1407142192D-01 E2=     -0.4044669581D-01
 ANorm=    0.1048644761D+01
 E2 =    -0.3090017384D+00 EUMP2 =    -0.11357625300989D+03
 (S**2,0)=  0.76515D+00           (S**2,1)=  0.75400D+00
 E(PUHF)=      -0.11327107426D+03        E(PMP2)=      -0.11357867805D+03
 Leave Link  804 at Thu Aug 31 18:54:13 2023, MaxMem= 17179869184 cpu:        11.9
 (Enter /opt/local/g09/l913.exe)
 CIDS:  MDV= 17179869184.
 Frozen-core window:  NFC=   2 NFV=   0.
 IFCWin=0 IBDFC=1 NFBD=     0     0 NFCmp=     0     0 NFFFC=     0     0
 Using original routines for 1st iteration, S=T.
 Using DD4UQ or CC4UQ for 2nd and later iterations.
 Keep R2 and R3 ints in memory in symmetry-blocked form, NReq=2055101.
 FoFCou: FMM=F IPFlag=           0 FMFlag=           0 FMFlg1=           0
         NFxFlg=           0 DoJE=F BraDBF=F KetDBF=F FulRan=T
         wScrn=  0.000000 ICntrl=     600 IOpCl=  0 I1Cent=           0 NGrid=           0
         NMat0=    1 NMatS0=   1540 NMatT0=    0 NMatD0=    1 NMtDS0=    0 NMtDT0=    0
 Petite list used in FoFCou.
 CCSD(T)
 =======
 Iterations=  50 Convergence= 0.100D-06
 Iteration Nr.   1
 **********************
 DD1Dir will call FoFMem   1 times, MxPair=        86
 NAB=    30 NAA=    15 NBB=    10.
 E(PMP3)=      -0.11357987282D+03
 MP4(R+Q)=  0.54564441D-02
 Maximum subspace dimension=  5
 Norm of the A-vectors is  3.7590200D-01 conv= 1.00D-05.
 RLE energy=       -0.3053382664
 E3=       -0.22802428D-02        EUMP3=      -0.11357853325D+03
 E4(DQ)=   -0.35797065D-02        UMP4(DQ)=   -0.11358211296D+03
 E4(SDQ)=  -0.95281903D-02        UMP4(SDQ)=  -0.11358806144D+03
 VARIATIONAL ENERGIES WITH THE FIRST-ORDER WAVEFUNCTION:
 DE(Corr)= -0.30529521     E(Corr)=     -113.57254649    
 NORM(A)=   0.10504339D+01
 Iteration Nr.   2
 **********************
 DD1Dir will call FoFMem   1 times, MxPair=        86
 NAB=    30 NAA=    15 NBB=    10.
 Norm of the A-vectors is  1.5583061D-01 conv= 1.00D-05.
 RLE energy=       -0.3182985603
 DE(Corr)= -0.31747945     E(CORR)=     -113.58473072     Delta=-1.22D-02
 NORM(A)=   0.10568266D+01
 Iteration Nr.   3
 **********************
 DD1Dir will call FoFMem   1 times, MxPair=        86
 NAB=    30 NAA=    15 NBB=    10.
 Norm of the A-vectors is  4.5788513D-02 conv= 1.00D-05.
 RLE energy=       -0.3194576217
 DE(Corr)= -0.31787330     E(CORR)=     -113.58512458     Delta=-3.94D-04
 NORM(A)=   0.10597132D+01
 Iteration Nr.   4
 **********************
 DD1Dir will call FoFMem   1 times, MxPair=        86
 NAB=    30 NAA=    15 NBB=    10.
 Norm of the A-vectors is  1.9646729D-02 conv= 1.00D-05.
 RLE energy=       -0.3196294532
 DE(Corr)= -0.31946655     E(CORR)=     -113.58671783     Delta=-1.59D-03
 NORM(A)=   0.10606763D+01
 Iteration Nr.   5
 **********************
 DD1Dir will call FoFMem   1 times, MxPair=        86
 NAB=    30 NAA=    15 NBB=    10.
 Norm of the A-vectors is  6.7014402D-03 conv= 1.00D-05.
 RLE energy=       -0.3197297317
 DE(Corr)= -0.31967042     E(CORR)=     -113.58692169     Delta=-2.04D-04
 NORM(A)=   0.10610441D+01
 Iteration Nr.   6
 **********************
 DD1Dir will call FoFMem   1 times, MxPair=        86
 NAB=    30 NAA=    15 NBB=    10.
 Norm of the A-vectors is  3.2524470D-03 conv= 1.00D-05.
 RLE energy=       -0.3196787331
 DE(Corr)= -0.31970619     E(CORR)=     -113.58695746     Delta=-3.58D-05
 NORM(A)=   0.10610885D+01
 Iteration Nr.   7
 **********************
 DD1Dir will call FoFMem   1 times, MxPair=        86
 NAB=    30 NAA=    15 NBB=    10.
 Norm of the A-vectors is  1.7786560D-03 conv= 1.00D-05.
 RLE energy=       -0.3197043276
 DE(Corr)= -0.31971288     E(CORR)=     -113.58696415     Delta=-6.69D-06
 NORM(A)=   0.10611061D+01
 Iteration Nr.   8
 **********************
 DD1Dir will call FoFMem   1 times, MxPair=        86
 NAB=    30 NAA=    15 NBB=    10.
 Norm of the A-vectors is  7.9698038D-04 conv= 1.00D-05.
 RLE energy=       -0.3197056195
 DE(Corr)= -0.31970667     E(CORR)=     -113.58695794     Delta= 6.21D-06
 NORM(A)=   0.10611129D+01
 Iteration Nr.   9
 **********************
 DD1Dir will call FoFMem   1 times, MxPair=        86
 NAB=    30 NAA=    15 NBB=    10.
 Norm of the A-vectors is  2.9786447D-04 conv= 1.00D-05.
 RLE energy=       -0.3197126462
 DE(Corr)= -0.31971233     E(CORR)=     -113.58696360     Delta=-5.66D-06
 NORM(A)=   0.10611147D+01
 Iteration Nr.  10
 **********************
 DD1Dir will call FoFMem   1 times, MxPair=        86
 NAB=    30 NAA=    15 NBB=    10.
 Norm of the A-vectors is  1.2428917D-04 conv= 1.00D-05.
 RLE energy=       -0.3197117088
 DE(Corr)= -0.31971122     E(CORR)=     -113.58696249     Delta= 1.10D-06
 NORM(A)=   0.10611162D+01
 Iteration Nr.  11
 **********************
 DD1Dir will call FoFMem   1 times, MxPair=        86
 NAB=    30 NAA=    15 NBB=    10.
 Norm of the A-vectors is  5.7078627D-05 conv= 1.00D-05.
 RLE energy=       -0.3197129890
 DE(Corr)= -0.31971282     E(CORR)=     -113.58696409     Delta=-1.60D-06
 NORM(A)=   0.10611174D+01
 Iteration Nr.  12
 **********************
 DD1Dir will call FoFMem   1 times, MxPair=        86
 NAB=    30 NAA=    15 NBB=    10.
 Norm of the A-vectors is  2.4080181D-05 conv= 1.00D-05.
 RLE energy=       -0.3197130510
 DE(Corr)= -0.31971288     E(CORR)=     -113.58696416     Delta=-6.66D-08
 NORM(A)=   0.10611181D+01
 Iteration Nr.  13
 **********************
 DD1Dir will call FoFMem   1 times, MxPair=        86
 NAB=    30 NAA=    15 NBB=    10.
 Norm of the A-vectors is  1.2602097D-05 conv= 1.00D-05.
 RLE energy=       -0.3197131428
 DE(Corr)= -0.31971311     E(CORR)=     -113.58696438     Delta=-2.22D-07
 NORM(A)=   0.10611185D+01
 Iteration Nr.  14
 **********************
 DD1Dir will call FoFMem   1 times, MxPair=        86
 NAB=    30 NAA=    15 NBB=    10.
 Norm of the A-vectors is  6.9855468D-06 conv= 1.00D-05.
 RLE energy=       -0.3197132116
 DE(Corr)= -0.31971317     E(CORR)=     -113.58696444     Delta=-6.08D-08
 NORM(A)=   0.10611187D+01
 CI/CC converged in   14 iterations to DelEn=-6.08D-08 Conv= 1.00D-07 ErrA1= 6.99D-06 Conv= 1.00D-05
 T1 Diagnostic =     0.02254646
 Largest amplitude= 5.09D-02
 Time for triples=       26.16 seconds.
 T4(CCSD)= -0.13939586D-01
 T5(CCSD)=  0.16747797D-02
 CCSD(T)= -0.11359922925D+03

 S**2, projected HF & approx projected MPn energies after annihilation of
 unwanted spin states (see manual for definitions):

 spins       (S**2,0) (S**2,1)    PUHF        PMP2        PMP3        PMP4
 annihilated
 s+1         0.74991  0.75005 -113.271074 -113.578678 -113.579872
 s+1,s+2     0.75000  0.75000 -113.271057 -113.578661 -113.579858
 s+1 to s+3  0.75000  0.75000 -113.271057 -113.578661 -113.579858
 s+1 to s+4  0.75000  0.75000 -113.271057 -113.578661 -113.579858
 s+1 to s+5  0.75000  0.75000 -113.271057

 Discarding MO integrals.
 Leave Link  913 at Thu Aug 31 18:54:17 2023, MaxMem= 17179869184 cpu:       123.8
 (Enter /opt/local/g09/l601.exe)
 Copying SCF densities to generalized density rwf, IOpCl= 1 IROHF=0.

 **********************************************************************

            Population analysis using the SCF density.

 **********************************************************************

 Orbital symmetries:
 Alpha Orbitals:
       Occupied  (A') (A') (A') (A') (A') (A') (A") (A')
       Virtual   (A') (A") (A') (A') (A") (A') (A') (A') (A") (A')
                 (A') (A") (A') (A') (A") (A') (A') (A") (A') (A')
                 (A") (A') (A') (A') (A") (A') (A') (A") (A') (A")
                 (A') (A') (A") (A') (A") (A') (A') (A") (A') (A')
                 (A') (A') (A") (A') (A") (A') (A')
 Beta  Orbitals:
       Occupied  (A') (A') (A') (A') (A') (A") (A')
       Virtual   (A') (A') (A") (A') (A') (A") (A') (A') (A') (A")
                 (A') (A') (A") (A') (A') (A") (A') (A') (A") (A')
                 (A') (A") (A') (A') (A') (A") (A') (A") (A') (A')
                 (A") (A') (A") (A') (A') (A") (A') (A') (A") (A')
                 (A') (A') (A') (A") (A') (A") (A') (A')
 The electronic state is 2-A'.
 Alpha  occ. eigenvalues --  -20.63402 -11.36686  -1.47195  -0.86041  -0.71707
 Alpha  occ. eigenvalues --   -0.65461  -0.58131  -0.39103
 Alpha virt. eigenvalues --    0.03477   0.06930   0.08912   0.09954   0.14808
 Alpha virt. eigenvalues --    0.16190   0.21970   0.24694   0.25812   0.28801
 Alpha virt. eigenvalues --    0.33134   0.36412   0.41876   0.47207   0.51116
 Alpha virt. eigenvalues --    0.51709   0.58498   0.62468   0.65522   0.71646
 Alpha virt. eigenvalues --    0.78943   0.85302   0.91199   0.97846   1.13818
 Alpha virt. eigenvalues --    1.15692   1.21547   1.21864   1.40007   1.51380
 Alpha virt. eigenvalues --    1.54604   1.66294   1.66700   1.79598   1.88118
 Alpha virt. eigenvalues --    1.96213   2.13837   2.16067   2.19218   2.36958
 Alpha virt. eigenvalues --    2.72134   3.10734   3.61042   3.61340   3.70953
 Alpha virt. eigenvalues --    3.76507   4.05056
  Beta  occ. eigenvalues --  -20.62196 -11.34816  -1.44313  -0.80040  -0.67000
  Beta  occ. eigenvalues --   -0.58084  -0.52899
  Beta virt. eigenvalues --    0.03598   0.06136   0.07497   0.08975   0.13471
  Beta virt. eigenvalues --    0.16827   0.17484   0.22161   0.25731   0.25835
  Beta virt. eigenvalues --    0.31505   0.34595   0.38052   0.42979   0.48338
  Beta virt. eigenvalues --    0.51777   0.52871   0.60467   0.62693   0.67942
  Beta virt. eigenvalues --    0.74872   0.80317   0.88473   0.92708   1.01722
  Beta virt. eigenvalues --    1.14251   1.17025   1.22264   1.24491   1.40826
  Beta virt. eigenvalues --    1.54530   1.57479   1.67626   1.71088   1.82562
  Beta virt. eigenvalues --    1.90160   1.99034   2.15361   2.17994   2.21766
  Beta virt. eigenvalues --    2.39083   2.74515   3.12060   3.63351   3.63709
  Beta virt. eigenvalues --    3.71150   3.79506   4.06381
          Condensed to atoms (all electrons):
               1          2          3
     1  H    0.740448   0.265658  -0.009458
     2  C    0.265658   4.920509   0.430279
     3  O   -0.009458   0.430279   7.966084
          Atomic-Atomic Spin Densities.
               1          2          3
     1  H    0.195304  -0.037569  -0.015582
     2  C   -0.037569   0.905846  -0.178809
     3  O   -0.015582  -0.178809   0.362772
 Mulliken charges and spin densities:
               1          2
     1  H    0.003352   0.142153
     2  C    0.383554   0.689467
     3  O   -0.386906   0.168380
 Sum of Mulliken charges =   0.00000   1.00000
 Mulliken charges and spin densities with hydrogens summed into heavy atoms:
               1          2
     2  C    0.386906   0.831620
     3  O   -0.386906   0.168380
 Electronic spatial extent (au):  <R**2>=             50.6153
 Charge=              0.0000 electrons
 Dipole moment (field-independent basis, Debye):
    X=             -0.9547    Y=              1.9036    Z=              0.0000  Tot=              2.1295
 Quadrupole moment (field-independent basis, Debye-Ang):
   XX=            -11.3987   YY=            -11.5623   ZZ=            -10.9744
   XY=             -1.1138   XZ=              0.0000   YZ=              0.0000
 Traceless Quadrupole moment (field-independent basis, Debye-Ang):
   XX=             -0.0869   YY=             -0.2505   ZZ=              0.3374
   XY=             -1.1138   XZ=              0.0000   YZ=              0.0000
 Octapole moment (field-independent basis, Debye-Ang**2):
  XXX=             -1.3924  YYY=             -1.8561  ZZZ=              0.0000  XYY=             -1.7961
  XXY=             -0.4246  XXZ=              0.0000  XZZ=             -0.2177  YZZ=             -0.5780
  YYZ=              0.0000  XYZ=              0.0000
 Hexadecapole moment (field-independent basis, Debye-Ang**3):
 XXXX=            -14.8352 YYYY=            -39.9520 ZZZZ=             -9.7932 XXXY=              0.7906
 XXXZ=              0.0000 YYYX=             -0.2066 YYYZ=              0.0000 ZZZX=              0.0000
 ZZZY=              0.0000 XXYY=             -8.9406 XXZZ=             -4.2263 YYZZ=             -8.1976
 XXYZ=              0.0000 YYXZ=              0.0000 ZZXY=              0.5802
 N-N= 2.656410529024D+01 E-N=-3.200859633613D+02  KE= 1.130940045458D+02
 Symmetry A'   KE= 1.093723091711D+02
 Symmetry A"   KE= 3.721695374699D+00
 Leave Link  601 at Thu Aug 31 18:54:17 2023, MaxMem= 17179869184 cpu:         2.7
 (Enter /opt/local/g09/l9999.exe)
 1\1\GINC-N216\SP\UCCSD(T)-FC\Aug-CC-pVDZ\C1H1O1(2)\XIZK\31-Aug-2023\0\
 \#p CCSD(T,T1Diag)/aug-cc-pvdz geom=check guess=read\\Title Card Requi
 red\\0,2\H,0,3.823609559,-0.2825216168,0.\C,0,2.8178012959,0.219858560
 2,0.\O,0,1.7934656651,-0.3515027735,0.\\Version=EM64L-G09RevD.01\State
 =2-A'\HF=-113.2672513\MP2=-113.576253\MP3=-113.5785333\MP4D=-113.58756
 94\MP4DQ=-113.582113\PUHF=-113.2710743\PMP2-0=-113.5786781\PMP3-0=-113
 .5798728\MP4SDQ=-113.5880614\CCSD=-113.5869644\CCSD(T)=-113.5992292\S2
 =0.765145\S2-1=0.753999\S2A=0.750161\RMSD=3.567e-09\PG=CS [SG(C1H1O1)]
 \\@


 THERE IS NO SCIENCE WITHOUT FANCY, NOR ART WITHOUT FACTS.
     -- VLADIMIR NABAKOV
 Job cpu time:       0 days  0 hours  2 minutes 56.8 seconds.
 File lengths (MBytes):  RWF=     27 Int=      0 D2E=      0 Chk=      2 Scr=      1
 Normal termination of Gaussian 09 at Thu Aug 31 18:54:17 2023.
