 Entering Gaussian System, Link 0=g09
 Input=HO2_ccsdt_avdz.gjf
 Output=HO2_ccsdt_avdz.log
 Initial command:
 /opt/local/g09/l1.exe "/data/tmp/Gau-61651.inp" -scrdir="/data/tmp/"
 Entering Link 1 = /opt/local/g09/l1.exe PID=     61652.
  
 Copyright (c) 1988,1990,1992,1993,1995,1998,2003,2009,2013,
            Gaussian, Inc.  All Rights Reserved.
  
 This is part of the Gaussian(R) 09 program.  It is based on
 the Gaussian(R) 03 system (copyright 2003, Gaussian, Inc.),
 the Gaussian(R) 98 system (copyright 1998, Gaussian, Inc.),
 the Gaussian(R) 94 system (copyright 1995, Gaussian, Inc.),
 the Gaussian 92(TM) system (copyright 1992, Gaussian, Inc.),
 the Gaussian 90(TM) system (copyright 1990, Gaussian, Inc.),
 the Gaussian 88(TM) system (copyright 1988, Gaussian, Inc.),
 the Gaussian 86(TM) system (copyright 1986, Carnegie Mellon
 University), and the Gaussian 82(TM) system (copyright 1983,
 Carnegie Mellon University). Gaussian is a federally registered
 trademark of Gaussian, Inc.
  
 This software contains proprietary and confidential information,
 including trade secrets, belonging to Gaussian, Inc.
  
 This software is provided under written license and may be
 used, copied, transmitted, or stored only in accord with that
 written license.
  
 The following legend is applicable only to US Government
 contracts under FAR:
  
                    RESTRICTED RIGHTS LEGEND
  
 Use, reproduction and disclosure by the US Government is
 subject to restrictions as set forth in subparagraphs (a)
 and (c) of the Commercial Computer Software - Restricted
 Rights clause in FAR 52.227-19.
  
 Gaussian, Inc.
 340 Quinnipiac St., Bldg. 40, Wallingford CT 06492
  
  
 ---------------------------------------------------------------
 Warning -- This program may not be used in any manner that
 competes with the business of Gaussian, Inc. or will provide
 assistance to any competitor of Gaussian, Inc.  The licensee
 of this program is prohibited from giving any competitor of
 Gaussian, Inc. access to this program.  By using this program,
 the user acknowledges that Gaussian, Inc. is engaged in the
 business of creating and licensing software in the field of
 computational chemistry and represents and warrants to the
 licensee that it is not a competitor of Gaussian, Inc. and that
 it will not use this program in any manner prohibited above.
 ---------------------------------------------------------------
  

 Cite this work as:
 Gaussian 09, Revision D.01,
 M. J. Frisch, G. W. Trucks, H. B. Schlegel, G. E. Scuseria, 
 M. A. Robb, J. R. Cheeseman, G. Scalmani, V. Barone, B. Mennucci, 
 G. A. Petersson, H. Nakatsuji, M. Caricato, X. Li, H. P. Hratchian, 
 A. F. Izmaylov, J. Bloino, G. Zheng, J. L. Sonnenberg, M. Hada, 
 M. Ehara, K. Toyota, R. Fukuda, J. Hasegawa, M. Ishida, T. Nakajima, 
 Y. Honda, O. Kitao, H. Nakai, T. Vreven, J. A. Montgomery, Jr., 
 J. E. Peralta, F. Ogliaro, M. Bearpark, J. J. Heyd, E. Brothers, 
 K. N. Kudin, V. N. Staroverov, T. Keith, R. Kobayashi, J. Normand, 
 K. Raghavachari, A. Rendell, J. C. Burant, S. S. Iyengar, J. Tomasi, 
 M. Cossi, N. Rega, J. M. Millam, M. Klene, J. E. Knox, J. B. Cross, 
 V. Bakken, C. Adamo, J. Jaramillo, R. Gomperts, R. E. Stratmann, 
 O. Yazyev, A. J. Austin, R. Cammi, C. Pomelli, J. W. Ochterski, 
 R. L. Martin, K. Morokuma, V. G. Zakrzewski, G. A. Voth, 
 P. Salvador, J. J. Dannenberg, S. Dapprich, A. D. Daniels, 
 O. Farkas, J. B. Foresman, J. V. Ortiz, J. Cioslowski, 
 and D. J. Fox, Gaussian, Inc., Wallingford CT, 2013.
 
 ******************************************
 Gaussian 09:  EM64L-G09RevD.01 24-Apr-2013
                31-Aug-2023 
 ******************************************
 %nprocshared=32
 Will use up to   32 processors via shared memory.
 %mem=128GB
 %chk=HO2_ccsdt_avdz.chk
 ---------------------------------------------------
 #p CCSD(T,T1Diag)/aug-cc-pvdz geom=check guess=read
 ---------------------------------------------------
 1/29=2,38=1/1;
 2/12=2,40=1/2;
 3/5=16,7=10,11=9,14=-4,16=1,25=1,30=1,116=-2/1,2,3;
 4/5=1/1;
 5/5=2,38=6/2;
 8/6=4,9=120000,10=1/1,4;
 9/5=7,14=2,36=1/13;
 6/7=2,8=2,9=2,10=2/1;
 99/5=1,9=1/99;
 Leave Link    1 at Thu Aug 31 18:54:20 2023, MaxMem= 17179869184 cpu:         1.7
 (Enter /opt/local/g09/l101.exe)
 -------------------
 Title Card Required
 -------------------
 Structure from the checkpoint file:  "HO2_ccsdt_avdz.chk"
 Charge =  0 Multiplicity = 2
 Redundant internal coordinates found in file.
 H,0,1.7768979855,0.2826674433,0.
 O,0,2.5327204834,-0.3335014787,0.
 O,0,3.6128891311,0.4408153653,0.
 Recover connectivity data from disk.
 NAtoms=      3 NQM=        3 NQMF=       0 NMMI=      0 NMMIF=      0
                NMic=       0 NMicF=      0.
                    Isotopes and Nuclear Properties:
 (Nuclear quadrupole moments (NQMom) in fm**2, nuclear magnetic moments (NMagM)
  in nuclear magnetons)

  Atom         1           2           3
 IAtWgt=           1          16          16
 AtmWgt=   1.0078250  15.9949146  15.9949146
 NucSpn=           1           0           0
 AtZEff=  -1.0000000  -5.6000000  -5.6000000
 NQMom=    0.0000000   0.0000000   0.0000000
 NMagM=    2.7928460   0.0000000   0.0000000
 AtZNuc=   1.0000000   8.0000000   8.0000000
 Leave Link  101 at Thu Aug 31 18:54:21 2023, MaxMem= 17179869184 cpu:         4.3
 (Enter /opt/local/g09/l202.exe)
                          Input orientation:                          
 ---------------------------------------------------------------------
 Center     Atomic      Atomic             Coordinates (Angstroms)
 Number     Number       Type             X           Y           Z
 ---------------------------------------------------------------------
      1          1           0        1.776898    0.282667    0.000000
      2          8           0        2.532720   -0.333501    0.000000
      3          8           0        3.612889    0.440815    0.000000
 ---------------------------------------------------------------------
                    Distance matrix (angstroms):
                    1          2          3
     1  H    0.000000
     2  O    0.975157   0.000000
     3  O    1.842790   1.329034   0.000000
 Stoichiometry    HO2(2)
 Framework group  CS[SG(HO2)]
 Deg. of freedom     3
 Full point group                 CS      NOp   2
 RotChk:  IX=2 Diff= 0.00D+00
 Largest Abelian subgroup         CS      NOp   2
 Largest concise Abelian subgroup C1      NOp   1
                         Standard orientation:                         
 ---------------------------------------------------------------------
 Center     Atomic      Atomic             Coordinates (Angstroms)
 Number     Number       Type             X           Y           Z
 ---------------------------------------------------------------------
      1          1           0        0.885783   -0.865712    0.000000
      2          8           0       -0.055361   -0.610410    0.000000
      3          8           0       -0.055361    0.718624    0.000000
 ---------------------------------------------------------------------
 Rotational constants (GHZ):    620.2355153     33.6842939     31.9491703
 Leave Link  202 at Thu Aug 31 18:54:21 2023, MaxMem= 17179869184 cpu:         0.6
 (Enter /opt/local/g09/l301.exe)
 Standard basis: Aug-CC-pVDZ (5D, 7F)
 Ernie: Thresh=  0.10000D-02 Tol=  0.10000D-05 Strict=F.
 Ernie:  4 primitive shells out of 57 were deleted.
 There are    43 symmetry adapted cartesian basis functions of A'  symmetry.
 There are    16 symmetry adapted cartesian basis functions of A"  symmetry.
 There are    39 symmetry adapted basis functions of A'  symmetry.
 There are    16 symmetry adapted basis functions of A"  symmetry.
    55 basis functions,    97 primitive gaussians,    59 cartesian basis functions
     9 alpha electrons        8 beta electrons
       nuclear repulsion energy        32.1212321530 Hartrees.
 IExCor=    0 DFT=F Ex=HF Corr=None ExCW=0 ScaHFX=  1.000000
 ScaDFX=  1.000000  1.000000  1.000000  1.000000 ScalE2=  1.000000  1.000000
 IRadAn=      0 IRanWt=     -1 IRanGd=            0 ICorTp=0 IEmpDi=  4
 NAtoms=    3 NActive=    3 NUniq=    3 SFac= 1.00D+00 NAtFMM=   60 NAOKFM=F Big=F
 Integral buffers will be    131072 words long.
 Raffenetti 2 integral format.
 Two-electron integral symmetry is turned on.
 Leave Link  301 at Thu Aug 31 18:54:21 2023, MaxMem= 17179869184 cpu:         0.5
 (Enter /opt/local/g09/l302.exe)
 NPDir=0 NMtPBC=     1 NCelOv=     1 NCel=       1 NClECP=     1 NCelD=      1
         NCelK=      1 NCelE2=     1 NClLst=     1 CellRange=     0.0.
 One-electron integrals computed using PRISM.
 NBasis=    55 RedAO= T EigKep=  1.44D-03  NBF=    39    16
 NBsUse=    55 1.00D-06 EigRej= -1.00D+00 NBFU=    39    16
 Leave Link  302 at Thu Aug 31 18:54:21 2023, MaxMem= 17179869184 cpu:         2.3
 (Enter /opt/local/g09/l303.exe)
 DipDrv:  MaxL=1.
 Leave Link  303 at Thu Aug 31 18:54:21 2023, MaxMem= 17179869184 cpu:         1.1
 (Enter /opt/local/g09/l401.exe)
 Initial guess from the checkpoint file:  "HO2_ccsdt_avdz.chk"
 B after Tr=     0.000000    0.000000    0.000000
         Rot=    1.000000    0.000000    0.000000    0.000000 Ang=   0.00 deg.
 Guess basis will be translated and rotated to current coordinates.
 JPrj=2 DoOrth=T DoCkMO=T.
 Initial guess orbital symmetries:
 Alpha Orbitals:
       Occupied  (A') (A') (A') (A') (A') (A") (A') (A") (A')
       Virtual   (A') (A') (A') (A') (A') (A") (A') (A") (A') (A")
                 (A') (A') (A') (A") (A') (A") (A') (A') (A") (A')
                 (A') (A") (A') (A') (A') (A") (A') (A") (A') (A")
                 (A') (A') (A") (A') (A') (A") (A') (A') (A") (A')
                 (A') (A") (A') (A') (A') (A')
 Beta  Orbitals:
       Occupied  (A') (A') (A') (A') (A') (A') (A") (A')
       Virtual   (A") (A') (A') (A') (A') (A') (A") (A') (A') (A")
                 (A") (A') (A') (A') (A") (A') (A") (A') (A') (A")
                 (A') (A') (A") (A') (A') (A') (A") (A') (A") (A')
                 (A") (A') (A') (A") (A') (A') (A") (A') (A') (A")
                 (A') (A') (A") (A') (A') (A') (A')
 The electronic state of the initial guess is 2-A".
 Initial guess <Sx>= 0.0000 <Sy>= 0.0000 <Sz>= 0.5000 <S**2>= 0.7533 S= 0.5017
 Leave Link  401 at Thu Aug 31 18:54:21 2023, MaxMem= 17179869184 cpu:         1.1
 (Enter /opt/local/g09/l502.exe)
 UHF open shell SCF:
 Using DIIS extrapolation, IDIIS=  1040.
 Integral symmetry usage will be decided dynamically.
 Keep R1 and R2 ints in memory in symmetry-blocked form, NReq=2111573.
 IVT=       31346 IEndB=       31346 NGot= 17179869184 MDV= 17178604072
 LenX= 17178604072 LenY= 17178600150
 Requested convergence on RMS density matrix=1.00D-08 within 128 cycles.
 Requested convergence on MAX density matrix=1.00D-06.
 Requested convergence on             energy=1.00D-06.
 No special actions if energy rises.
 FoFCou: FMM=F IPFlag=           0 FMFlag=           0 FMFlg1=           0
         NFxFlg=           0 DoJE=F BraDBF=F KetDBF=F FulRan=T
         wScrn=  0.000000 ICntrl=     600 IOpCl=  0 I1Cent=           0 NGrid=           0
         NMat0=    1 NMatS0=   1540 NMatT0=    0 NMatD0=    1 NMtDS0=    0 NMtDT0=    0
 Petite list used in FoFCou.

 Cycle   1  Pass 1  IDiag  1:
 E= -150.180383641108    
 DIIS: error= 2.15D-02 at cycle   1 NSaved=   1.
 NSaved= 1 IEnMin= 1 EnMin= -150.180383641108     IErMin= 1 ErrMin= 2.15D-02
 ErrMax= 2.15D-02  0.00D+00 EMaxC= 1.00D-01 BMatC= 1.06D-01 BMatP= 1.06D-01
 IDIUse=3 WtCom= 7.85D-01 WtEn= 2.15D-01
 Coeff-Com:  0.100D+01
 Coeff-En:   0.100D+01
 Coeff:      0.100D+01
 Gap=     0.648 Goal=   None    Shift=    0.000
 Gap=     0.582 Goal=   None    Shift=    0.000
 GapD=    0.582 DampG=2.000 DampE=0.500 DampFc=1.0000 IDamp=-1.
 RMSDP=4.31D-03 MaxDP=4.59D-02              OVMax= 6.94D-02

 Cycle   2  Pass 1  IDiag  1:
 E= -150.197410856633     Delta-E=       -0.017027215526 Rises=F Damp=F
 DIIS: error= 5.46D-03 at cycle   2 NSaved=   2.
 NSaved= 2 IEnMin= 2 EnMin= -150.197410856633     IErMin= 2 ErrMin= 5.46D-03
 ErrMax= 5.46D-03  0.00D+00 EMaxC= 1.00D-01 BMatC= 5.45D-03 BMatP= 1.06D-01
 IDIUse=3 WtCom= 9.45D-01 WtEn= 5.46D-02
 Coeff-Com: -0.706D-01 0.107D+01
 Coeff-En:   0.000D+00 0.100D+01
 Coeff:     -0.667D-01 0.107D+01
 Gap=     0.565 Goal=   None    Shift=    0.000
 Gap=     0.532 Goal=   None    Shift=    0.000
 RMSDP=8.51D-04 MaxDP=1.39D-02 DE=-1.70D-02 OVMax= 3.37D-02

 Cycle   3  Pass 1  IDiag  1:
 E= -150.200080316522     Delta-E=       -0.002669459889 Rises=F Damp=F
 DIIS: error= 5.05D-03 at cycle   3 NSaved=   3.
 NSaved= 3 IEnMin= 3 EnMin= -150.200080316522     IErMin= 3 ErrMin= 5.05D-03
 ErrMax= 5.05D-03  0.00D+00 EMaxC= 1.00D-01 BMatC= 1.29D-03 BMatP= 5.45D-03
 IDIUse=3 WtCom= 9.50D-01 WtEn= 5.05D-02
 Coeff-Com: -0.351D-01 0.131D+00 0.904D+00
 Coeff-En:   0.000D+00 0.000D+00 0.100D+01
 Coeff:     -0.333D-01 0.125D+00 0.909D+00
 Gap=     0.556 Goal=   None    Shift=    0.000
 Gap=     0.522 Goal=   None    Shift=    0.000
 RMSDP=3.76D-04 MaxDP=8.91D-03 DE=-2.67D-03 OVMax= 2.70D-02

 Cycle   4  Pass 1  IDiag  1:
 E= -150.201078372664     Delta-E=       -0.000998056141 Rises=F Damp=F
 DIIS: error= 3.22D-03 at cycle   4 NSaved=   4.
 NSaved= 4 IEnMin= 4 EnMin= -150.201078372664     IErMin= 4 ErrMin= 3.22D-03
 ErrMax= 3.22D-03  0.00D+00 EMaxC= 1.00D-01 BMatC= 7.02D-04 BMatP= 1.29D-03
 IDIUse=3 WtCom= 9.68D-01 WtEn= 3.22D-02
 Coeff-Com:  0.218D-01-0.259D+00-0.551D-01 0.129D+01
 Coeff-En:   0.000D+00 0.000D+00 0.000D+00 0.100D+01
 Coeff:      0.211D-01-0.250D+00-0.533D-01 0.128D+01
 Gap=     0.560 Goal=   None    Shift=    0.000
 Gap=     0.524 Goal=   None    Shift=    0.000
 RMSDP=4.52D-04 MaxDP=1.08D-02 DE=-9.98D-04 OVMax= 2.75D-02

 Cycle   5  Pass 1  IDiag  1:
 E= -150.201880667979     Delta-E=       -0.000802295316 Rises=F Damp=F
 DIIS: error= 2.47D-03 at cycle   5 NSaved=   5.
 NSaved= 5 IEnMin= 5 EnMin= -150.201880667979     IErMin= 5 ErrMin= 2.47D-03
 ErrMax= 2.47D-03  0.00D+00 EMaxC= 1.00D-01 BMatC= 2.53D-04 BMatP= 7.02D-04
 IDIUse=3 WtCom= 9.75D-01 WtEn= 2.47D-02
 Coeff-Com:  0.145D-01-0.464D-01-0.235D+00 0.193D-01 0.125D+01
 Coeff-En:   0.000D+00 0.000D+00 0.000D+00 0.000D+00 0.100D+01
 Coeff:      0.141D-01-0.453D-01-0.229D+00 0.188D-01 0.124D+01
 Gap=     0.562 Goal=   None    Shift=    0.000
 Gap=     0.525 Goal=   None    Shift=    0.000
 RMSDP=3.26D-04 MaxDP=1.13D-02 DE=-8.02D-04 OVMax= 2.25D-02

 Cycle   6  Pass 1  IDiag  1:
 E= -150.202244381202     Delta-E=       -0.000363713223 Rises=F Damp=F
 DIIS: error= 1.03D-03 at cycle   6 NSaved=   6.
 NSaved= 6 IEnMin= 6 EnMin= -150.202244381202     IErMin= 6 ErrMin= 1.03D-03
 ErrMax= 1.03D-03  0.00D+00 EMaxC= 1.00D-01 BMatC= 1.07D-04 BMatP= 2.53D-04
 IDIUse=3 WtCom= 9.90D-01 WtEn= 1.03D-02
 Coeff-Com: -0.154D-01 0.173D+00 0.895D-01-0.855D+00 0.343D-01 0.157D+01
 Coeff-En:   0.000D+00 0.000D+00 0.000D+00 0.000D+00 0.000D+00 0.100D+01
 Coeff:     -0.152D-01 0.172D+00 0.886D-01-0.846D+00 0.339D-01 0.157D+01
 Gap=     0.562 Goal=   None    Shift=    0.000
 Gap=     0.524 Goal=   None    Shift=    0.000
 RMSDP=3.21D-04 MaxDP=1.05D-02 DE=-3.64D-04 OVMax= 1.97D-02

 Cycle   7  Pass 1  IDiag  1:
 E= -150.202403192851     Delta-E=       -0.000158811649 Rises=F Damp=F
 DIIS: error= 2.77D-04 at cycle   7 NSaved=   7.
 NSaved= 7 IEnMin= 7 EnMin= -150.202403192851     IErMin= 7 ErrMin= 2.77D-04
 ErrMax= 2.77D-04  0.00D+00 EMaxC= 1.00D-01 BMatC= 1.13D-05 BMatP= 1.07D-04
 IDIUse=3 WtCom= 9.97D-01 WtEn= 2.77D-03
 Coeff-Com:  0.386D-02-0.604D-01 0.589D-02 0.359D+00-0.193D+00-0.694D+00
 Coeff-Com:  0.158D+01
 Coeff-En:   0.000D+00 0.000D+00 0.000D+00 0.000D+00 0.000D+00 0.000D+00
 Coeff-En:   0.100D+01
 Coeff:      0.385D-02-0.602D-01 0.587D-02 0.358D+00-0.192D+00-0.692D+00
 Coeff:      0.158D+01
 Gap=     0.561 Goal=   None    Shift=    0.000
 Gap=     0.524 Goal=   None    Shift=    0.000
 RMSDP=7.88D-05 MaxDP=2.47D-03 DE=-1.59D-04 OVMax= 3.50D-03

 Cycle   8  Pass 1  IDiag  1:
 E= -150.202416295586     Delta-E=       -0.000013102735 Rises=F Damp=F
 DIIS: error= 9.11D-05 at cycle   8 NSaved=   8.
 NSaved= 8 IEnMin= 8 EnMin= -150.202416295586     IErMin= 8 ErrMin= 9.11D-05
 ErrMax= 9.11D-05  0.00D+00 EMaxC= 1.00D-01 BMatC= 3.08D-06 BMatP= 1.13D-05
 IDIUse=1 WtCom= 1.00D+00 WtEn= 0.00D+00
 Coeff-Com:  0.271D-03 0.419D-02-0.864D-02-0.667D-01 0.101D+00 0.927D-01
 Coeff-Com: -0.780D+00 0.166D+01
 Coeff:      0.271D-03 0.419D-02-0.864D-02-0.667D-01 0.101D+00 0.927D-01
 Coeff:     -0.780D+00 0.166D+01
 Gap=     0.561 Goal=   None    Shift=    0.000
 Gap=     0.524 Goal=   None    Shift=    0.000
 RMSDP=4.30D-05 MaxDP=9.47D-04 DE=-1.31D-05 OVMax= 1.37D-03

 Cycle   9  Pass 1  IDiag  1:
 E= -150.202420107321     Delta-E=       -0.000003811734 Rises=F Damp=F
 DIIS: error= 5.93D-05 at cycle   9 NSaved=   9.
 NSaved= 9 IEnMin= 9 EnMin= -150.202420107321     IErMin= 9 ErrMin= 5.93D-05
 ErrMax= 5.93D-05  0.00D+00 EMaxC= 1.00D-01 BMatC= 1.05D-06 BMatP= 3.08D-06
 IDIUse=1 WtCom= 1.00D+00 WtEn= 0.00D+00
 Coeff-Com: -0.150D-02 0.197D-01-0.725D-03-0.751D-01-0.936D-02 0.208D+00
 Coeff-Com: -0.511D-01-0.125D+01 0.216D+01
 Coeff:     -0.150D-02 0.197D-01-0.725D-03-0.751D-01-0.936D-02 0.208D+00
 Coeff:     -0.511D-01-0.125D+01 0.216D+01
 Gap=     0.561 Goal=   None    Shift=    0.000
 Gap=     0.524 Goal=   None    Shift=    0.000
 RMSDP=3.81D-05 MaxDP=8.35D-04 DE=-3.81D-06 OVMax= 1.27D-03

 Cycle  10  Pass 1  IDiag  1:
 E= -150.202421840764     Delta-E=       -0.000001733443 Rises=F Damp=F
 DIIS: error= 1.91D-05 at cycle  10 NSaved=  10.
 NSaved=10 IEnMin=10 EnMin= -150.202421840764     IErMin=10 ErrMin= 1.91D-05
 ErrMax= 1.91D-05  0.00D+00 EMaxC= 1.00D-01 BMatC= 1.34D-07 BMatP= 1.05D-06
 IDIUse=1 WtCom= 1.00D+00 WtEn= 0.00D+00
 Coeff-Com:  0.962D-03-0.142D-01 0.989D-03 0.639D-01-0.102D-01-0.161D+00
 Coeff-Com:  0.175D+00 0.592D+00-0.157D+01 0.193D+01
 Coeff:      0.962D-03-0.142D-01 0.989D-03 0.639D-01-0.102D-01-0.161D+00
 Coeff:      0.175D+00 0.592D+00-0.157D+01 0.193D+01
 Gap=     0.561 Goal=   None    Shift=    0.000
 Gap=     0.524 Goal=   None    Shift=    0.000
 RMSDP=1.42D-05 MaxDP=3.03D-04 DE=-1.73D-06 OVMax= 4.59D-04

 Cycle  11  Pass 1  IDiag  1:
 E= -150.202422039591     Delta-E=       -0.000000198828 Rises=F Damp=F
 DIIS: error= 6.36D-06 at cycle  11 NSaved=  11.
 NSaved=11 IEnMin=11 EnMin= -150.202422039591     IErMin=11 ErrMin= 6.36D-06
 ErrMax= 6.36D-06  0.00D+00 EMaxC= 1.00D-01 BMatC= 1.09D-08 BMatP= 1.34D-07
 IDIUse=1 WtCom= 1.00D+00 WtEn= 0.00D+00
 Coeff-Com: -0.476D-03 0.728D-02 0.528D-04-0.359D-01 0.683D-02 0.876D-01
 Coeff-Com: -0.112D+00-0.249D+00 0.783D+00-0.119D+01 0.171D+01
 Coeff:     -0.476D-03 0.728D-02 0.528D-04-0.359D-01 0.683D-02 0.876D-01
 Coeff:     -0.112D+00-0.249D+00 0.783D+00-0.119D+01 0.171D+01
 Gap=     0.561 Goal=   None    Shift=    0.000
 Gap=     0.524 Goal=   None    Shift=    0.000
 RMSDP=3.06D-06 MaxDP=6.12D-05 DE=-1.99D-07 OVMax= 8.96D-05

 Cycle  12  Pass 1  IDiag  1:
 E= -150.202422052233     Delta-E=       -0.000000012642 Rises=F Damp=F
 DIIS: error= 3.26D-06 at cycle  12 NSaved=  12.
 NSaved=12 IEnMin=12 EnMin= -150.202422052233     IErMin=12 ErrMin= 3.26D-06
 ErrMax= 3.26D-06  0.00D+00 EMaxC= 1.00D-01 BMatC= 2.13D-09 BMatP= 1.09D-08
 IDIUse=1 WtCom= 1.00D+00 WtEn= 0.00D+00
 Coeff-Com:  0.222D-03-0.344D-02-0.590D-03 0.195D-01-0.504D-02-0.422D-01
 Coeff-Com:  0.589D-01 0.106D+00-0.367D+00 0.606D+00-0.125D+01 0.187D+01
 Coeff:      0.222D-03-0.344D-02-0.590D-03 0.195D-01-0.504D-02-0.422D-01
 Coeff:      0.589D-01 0.106D+00-0.367D+00 0.606D+00-0.125D+01 0.187D+01
 Gap=     0.561 Goal=   None    Shift=    0.000
 Gap=     0.524 Goal=   None    Shift=    0.000
 RMSDP=1.37D-06 MaxDP=2.08D-05 DE=-1.26D-08 OVMax= 4.16D-05

 Cycle  13  Pass 1  IDiag  1:
 E= -150.202422054519     Delta-E=       -0.000000002286 Rises=F Damp=F
 DIIS: error= 1.30D-06 at cycle  13 NSaved=  13.
 NSaved=13 IEnMin=13 EnMin= -150.202422054519     IErMin=13 ErrMin= 1.30D-06
 ErrMax= 1.30D-06  0.00D+00 EMaxC= 1.00D-01 BMatC= 4.06D-10 BMatP= 2.13D-09
 IDIUse=1 WtCom= 1.00D+00 WtEn= 0.00D+00
 Coeff-Com: -0.657D-04 0.101D-02 0.494D-03-0.744D-02 0.290D-02 0.119D-01
 Coeff-Com: -0.178D-01-0.310D-01 0.107D+00-0.174D+00 0.453D+00-0.105D+01
 Coeff-Com:  0.170D+01
 Coeff:     -0.657D-04 0.101D-02 0.494D-03-0.744D-02 0.290D-02 0.119D-01
 Coeff:     -0.178D-01-0.310D-01 0.107D+00-0.174D+00 0.453D+00-0.105D+01
 Coeff:      0.170D+01
 Gap=     0.561 Goal=   None    Shift=    0.000
 Gap=     0.524 Goal=   None    Shift=    0.000
 RMSDP=6.23D-07 MaxDP=1.08D-05 DE=-2.29D-09 OVMax= 2.38D-05

 Cycle  14  Pass 1  IDiag  1:
 E= -150.202422054850     Delta-E=       -0.000000000330 Rises=F Damp=F
 DIIS: error= 4.54D-07 at cycle  14 NSaved=  14.
 NSaved=14 IEnMin=14 EnMin= -150.202422054850     IErMin=14 ErrMin= 4.54D-07
 ErrMax= 4.54D-07  0.00D+00 EMaxC= 1.00D-01 BMatC= 7.32D-11 BMatP= 4.06D-10
 IDIUse=1 WtCom= 1.00D+00 WtEn= 0.00D+00
 Coeff-Com: -0.109D-04 0.180D-03-0.139D-03-0.733D-04-0.501D-03 0.260D-02
 Coeff-Com: -0.331D-02-0.458D-02 0.188D-01-0.373D-01 0.447D-01 0.411D-01
 Coeff-Com: -0.477D+00 0.142D+01
 Coeff:     -0.109D-04 0.180D-03-0.139D-03-0.733D-04-0.501D-03 0.260D-02
 Coeff:     -0.331D-02-0.458D-02 0.188D-01-0.373D-01 0.447D-01 0.411D-01
 Coeff:     -0.477D+00 0.142D+01
 Gap=     0.561 Goal=   None    Shift=    0.000
 Gap=     0.524 Goal=   None    Shift=    0.000
 RMSDP=2.42D-07 MaxDP=5.46D-06 DE=-3.30D-10 OVMax= 1.13D-05

 Cycle  15  Pass 1  IDiag  1:
 E= -150.202422054900     Delta-E=       -0.000000000051 Rises=F Damp=F
 DIIS: error= 1.10D-07 at cycle  15 NSaved=  15.
 NSaved=15 IEnMin=15 EnMin= -150.202422054900     IErMin=15 ErrMin= 1.10D-07
 ErrMax= 1.10D-07  0.00D+00 EMaxC= 1.00D-01 BMatC= 4.08D-12 BMatP= 7.32D-11
 IDIUse=1 WtCom= 1.00D+00 WtEn= 0.00D+00
 Coeff-Com:  0.455D-05-0.752D-04 0.175D-04 0.240D-03 0.262D-04-0.102D-02
 Coeff-Com:  0.153D-02 0.135D-02-0.705D-02 0.147D-01-0.307D-01 0.465D-01
 Coeff-Com:  0.171D-02-0.317D+00 0.129D+01
 Coeff:      0.455D-05-0.752D-04 0.175D-04 0.240D-03 0.262D-04-0.102D-02
 Coeff:      0.153D-02 0.135D-02-0.705D-02 0.147D-01-0.307D-01 0.465D-01
 Coeff:      0.171D-02-0.317D+00 0.129D+01
 Gap=     0.561 Goal=   None    Shift=    0.000
 Gap=     0.524 Goal=   None    Shift=    0.000
 RMSDP=5.40D-08 MaxDP=1.23D-06 DE=-5.06D-11 OVMax= 2.56D-06

 Cycle  16  Pass 1  IDiag  1:
 E= -150.202422054903     Delta-E=       -0.000000000003 Rises=F Damp=F
 DIIS: error= 3.35D-08 at cycle  16 NSaved=  16.
 NSaved=16 IEnMin=16 EnMin= -150.202422054903     IErMin=16 ErrMin= 3.35D-08
 ErrMax= 3.35D-08  0.00D+00 EMaxC= 1.00D-01 BMatC= 3.40D-13 BMatP= 4.08D-12
 IDIUse=1 WtCom= 1.00D+00 WtEn= 0.00D+00
 Coeff-Com: -0.160D-06 0.455D-05-0.677D-05 0.302D-04-0.268D-04 0.900D-04
 Coeff-Com: -0.219D-03 0.390D-03-0.507D-04-0.146D-02 0.527D-02-0.150D-01
 Coeff-Com:  0.228D-01 0.614D-01-0.744D+00 0.167D+01
 Coeff:     -0.160D-06 0.455D-05-0.677D-05 0.302D-04-0.268D-04 0.900D-04
 Coeff:     -0.219D-03 0.390D-03-0.507D-04-0.146D-02 0.527D-02-0.150D-01
 Coeff:      0.228D-01 0.614D-01-0.744D+00 0.167D+01
 Gap=     0.561 Goal=   None    Shift=    0.000
 Gap=     0.524 Goal=   None    Shift=    0.000
 RMSDP=1.87D-08 MaxDP=2.58D-07 DE=-3.15D-12 OVMax= 5.41D-07

 Cycle  17  Pass 1  IDiag  1:
 E= -150.202422054904     Delta-E=       -0.000000000001 Rises=F Damp=F
 DIIS: error= 1.85D-08 at cycle  17 NSaved=  17.
 NSaved=17 IEnMin=17 EnMin= -150.202422054904     IErMin=17 ErrMin= 1.85D-08
 ErrMax= 1.85D-08  0.00D+00 EMaxC= 1.00D-01 BMatC= 8.47D-14 BMatP= 3.40D-13
 IDIUse=1 WtCom= 1.00D+00 WtEn= 0.00D+00
 Coeff-Com: -0.595D-06 0.859D-05 0.104D-05-0.512D-04 0.744D-05 0.102D-03
 Coeff-Com: -0.107D-03-0.404D-03 0.105D-02-0.136D-02 0.170D-02 0.235D-02
 Coeff-Com: -0.198D-01 0.371D-01 0.196D+00-0.106D+01 0.184D+01
 Coeff:     -0.595D-06 0.859D-05 0.104D-05-0.512D-04 0.744D-05 0.102D-03
 Coeff:     -0.107D-03-0.404D-03 0.105D-02-0.136D-02 0.170D-02 0.235D-02
 Coeff:     -0.198D-01 0.371D-01 0.196D+00-0.106D+01 0.184D+01
 Gap=     0.561 Goal=   None    Shift=    0.000
 Gap=     0.524 Goal=   None    Shift=    0.000
 RMSDP=1.12D-08 MaxDP=1.54D-07 DE=-5.12D-13 OVMax= 3.27D-07

 Cycle  18  Pass 1  IDiag  1:
 E= -150.202422054904     Delta-E=        0.000000000000 Rises=F Damp=F
 DIIS: error= 5.42D-09 at cycle  18 NSaved=  18.
 NSaved=18 IEnMin=18 EnMin= -150.202422054904     IErMin=18 ErrMin= 5.42D-09
 ErrMax= 5.42D-09  0.00D+00 EMaxC= 1.00D-01 BMatC= 1.03D-14 BMatP= 8.47D-14
 IDIUse=1 WtCom= 1.00D+00 WtEn= 0.00D+00
 Large coefficients: NSaved= 18 BigCof=    0.00 CofMax=   10.00 Det=-3.40D-15
 Inversion failed.  Reducing to 17 matrices.
 Large coefficients: NSaved= 17 BigCof=    0.00 CofMax=   10.00 Det=-3.59D-15
 Inversion failed.  Reducing to 16 matrices.
 Large coefficients: NSaved= 16 BigCof=    0.00 CofMax=   10.00 Det=-3.60D-15
 Inversion failed.  Reducing to 15 matrices.
 Coeff-Com: -0.225D-05 0.309D-05-0.270D-05 0.579D-05-0.232D-04 0.110D-04
 Coeff-Com:  0.103D-03-0.441D-03 0.615D-03 0.255D-02-0.189D-01 0.528D-01
 Coeff-Com:  0.528D-01-0.529D+00 0.144D+01
 Coeff:     -0.225D-05 0.309D-05-0.270D-05 0.579D-05-0.232D-04 0.110D-04
 Coeff:      0.103D-03-0.441D-03 0.615D-03 0.255D-02-0.189D-01 0.528D-01
 Coeff:      0.528D-01-0.529D+00 0.144D+01
 Gap=     0.561 Goal=   None    Shift=    0.000
 Gap=     0.524 Goal=   None    Shift=    0.000
 RMSDP=3.19D-09 MaxDP=4.21D-08 DE=-8.53D-14 OVMax= 9.24D-08

 SCF Done:  E(UHF) =  -150.202422055     A.U. after   18 cycles
            NFock= 18  Conv=0.32D-08     -V/T= 2.0009
 <Sx>= 0.0000 <Sy>= 0.0000 <Sz>= 0.5000 <S**2>= 0.7628 S= 0.5064
 <L.S>= 0.000000000000E+00
 KE= 1.500652454884D+02 PE=-4.208413475454D+02 EE= 8.845244784909D+01
 Annihilation of the first spin contaminant:
 S**2 before annihilation     0.7628,   after     0.7501
 Leave Link  502 at Thu Aug 31 18:54:21 2023, MaxMem= 17179869184 cpu:         5.0
 (Enter /opt/local/g09/l801.exe)
 Windowed orbitals will be sorted by symmetry type.
 ExpMin= 2.97D-02 ExpMax= 1.17D+04 ExpMxC= 4.01D+02 IAcc=3 IRadAn=         5 AccDes= 0.00D+00
 HarFok:  IExCor=  205 AccDes= 0.00D+00 IRadAn=         5 IDoV=-2 UseB2=F ITyADJ=14
 ICtDFT= 12500011 ScaDFX=  1.000000  1.000000  1.000000  1.000000
 Largest valence mixing into a core orbital is  6.17D-05
 Largest core mixing into a valence orbital is  2.38D-05
 Largest valence mixing into a core orbital is  8.54D-05
 Largest core mixing into a valence orbital is  3.45D-05
 Range of M.O.s used for correlation:     3    55
 NBasis=    55 NAE=     9 NBE=     8 NFC=     2 NFV=     0
 NROrb=     53 NOA=     7 NOB=     6 NVA=    46 NVB=    47

 **** Warning!!: The largest alpha MO coefficient is  0.12946865D+02


 **** Warning!!: The largest beta MO coefficient is  0.11975155D+02

 Leave Link  801 at Thu Aug 31 18:54:21 2023, MaxMem= 17179869184 cpu:         1.0
 (Enter /opt/local/g09/l804.exe)
 Open-shell transformation, MDV= 17179869184 ITran=4 ISComp=2.
 Semi-Direct transformation.
 ModeAB=           2 MOrb=             7 LenV=   17179640858
 LASXX=       238154 LTotXX=      238154 LenRXX=      238154
 LTotAB=      258082 MaxLAS=      656670 LenRXY=      656670
 NonZer=      687834 LenScr=     1571840 LnRSAI=           0
 LnScr1=           0 LExtra=           0 Total=      2466664
 MaxDsk=          -1 SrtSym=           F ITran=            4
 DoSDTr:  NPSUse= 32
 JobTyp=1 Pass  1:  I=   1 to   7.
 (rs|ai) integrals will be sorted in core.
 Complete sort for first half transformation.
 First half transformation complete.
 Complete sort for second half transformation.
 Second half transformation complete.
 ModeAB=           2 MOrb=             6 LenV=   17179640858
 LASXX=       209374 LTotXX=      209374 LenRXX=      562860
 LTotAB=      171079 MaxLAS=      562860 LenRXY=      171079
 NonZer=      589572 LenScr=     1571840 LnRSAI=           0
 LnScr1=           0 LExtra=           0 Total=      2305779
 MaxDsk=          -1 SrtSym=           F ITran=            4
 DoSDTr:  NPSUse= 32
 JobTyp=2 Pass  1:  I=   1 to   6.
 (rs|ai) integrals will be sorted in core.
 Complete sort for first half transformation.
 First half transformation complete.
 Complete sort for second half transformation.
 Second half transformation complete.
 Spin components of T(2) and E(2):
     alpha-alpha T2 =       0.1315123026D-01 E2=     -0.5094296696D-01
     alpha-beta  T2 =       0.7286726484D-01 E2=     -0.2689840795D+00
     beta-beta   T2 =       0.1419541963D-01 E2=     -0.4613078036D-01
 ANorm=    0.1048910823D+01
 E2 =    -0.3660578268D+00 EUMP2 =    -0.15056847988171D+03
 (S**2,0)=  0.76277D+00           (S**2,1)=  0.75309D+00
 E(PUHF)=      -0.15020692084D+03        E(PMP2)=      -0.15057128390D+03
 Leave Link  804 at Thu Aug 31 18:54:22 2023, MaxMem= 17179869184 cpu:        13.9
 (Enter /opt/local/g09/l913.exe)
 CIDS:  MDV= 17179869184.
 Frozen-core window:  NFC=   2 NFV=   0.
 IFCWin=0 IBDFC=1 NFBD=     0     0 NFCmp=     0     0 NFFFC=     0     0
 Using original routines for 1st iteration, S=T.
 Using DD4UQ or CC4UQ for 2nd and later iterations.
 Keep R2 and R3 ints in memory in symmetry-blocked form, NReq=2055101.
 FoFCou: FMM=F IPFlag=           0 FMFlag=           0 FMFlg1=           0
         NFxFlg=           0 DoJE=F BraDBF=F KetDBF=F FulRan=T
         wScrn=  0.000000 ICntrl=     600 IOpCl=  0 I1Cent=           0 NGrid=           0
         NMat0=    1 NMatS0=   1540 NMatT0=    0 NMatD0=    1 NMtDS0=    0 NMtDT0=    0
 Petite list used in FoFCou.
 CCSD(T)
 =======
 Iterations=  50 Convergence= 0.100D-06
 Iteration Nr.   1
 **********************
 DD1Dir will call FoFMem   1 times, MxPair=       120
 NAB=    42 NAA=    21 NBB=    15.
 E(PMP3)=      -0.15057872222D+03
 MP4(R+Q)=  0.60817548D-02
 Maximum subspace dimension=  5
 Norm of the A-vectors is  3.8943558D-01 conv= 1.00D-05.
 RLE energy=       -0.3685454411
 E3=       -0.85479204D-02        EUMP3=      -0.15057702780D+03
 E4(DQ)=   -0.21887688D-02        UMP4(DQ)=   -0.15057921657D+03
 E4(SDQ)=  -0.87936270D-02        UMP4(SDQ)=  -0.15058582143D+03
 VARIATIONAL ENERGIES WITH THE FIRST-ORDER WAVEFUNCTION:
 DE(Corr)= -0.36852865     E(Corr)=     -150.57095071    
 NORM(A)=   0.10521694D+01
 Iteration Nr.   2
 **********************
 DD1Dir will call FoFMem   1 times, MxPair=       120
 NAB=    42 NAA=    21 NBB=    15.
 Norm of the A-vectors is  1.7475225D-01 conv= 1.00D-05.
 RLE energy=       -0.3827493125
 DE(Corr)= -0.38065409     E(CORR)=     -150.58307615     Delta=-1.21D-02
 NORM(A)=   0.10597324D+01
 Iteration Nr.   3
 **********************
 DD1Dir will call FoFMem   1 times, MxPair=       120
 NAB=    42 NAA=    21 NBB=    15.
 Norm of the A-vectors is  5.2699012D-02 conv= 1.00D-05.
 RLE energy=       -0.3851260002
 DE(Corr)= -0.38242731     E(CORR)=     -150.58484936     Delta=-1.77D-03
 NORM(A)=   0.10661790D+01
 Iteration Nr.   4
 **********************
 DD1Dir will call FoFMem   1 times, MxPair=       120
 NAB=    42 NAA=    21 NBB=    15.
 Norm of the A-vectors is  3.2554356D-02 conv= 1.00D-05.
 RLE energy=       -0.3860109945
 DE(Corr)= -0.38517455     E(CORR)=     -150.58759661     Delta=-2.75D-03
 NORM(A)=   0.10705334D+01
 Iteration Nr.   5
 **********************
 DD1Dir will call FoFMem   1 times, MxPair=       120
 NAB=    42 NAA=    21 NBB=    15.
 Norm of the A-vectors is  1.5593495D-02 conv= 1.00D-05.
 RLE energy=       -0.3862640868
 DE(Corr)= -0.38600691     E(CORR)=     -150.58842896     Delta=-8.32D-04
 NORM(A)=   0.10723439D+01
 Iteration Nr.   6
 **********************
 DD1Dir will call FoFMem   1 times, MxPair=       120
 NAB=    42 NAA=    21 NBB=    15.
 Norm of the A-vectors is  6.7613758D-03 conv= 1.00D-05.
 RLE energy=       -0.3861615993
 DE(Corr)= -0.38622324     E(CORR)=     -150.58864530     Delta=-2.16D-04
 NORM(A)=   0.10724727D+01
 Iteration Nr.   7
 **********************
 DD1Dir will call FoFMem   1 times, MxPair=       120
 NAB=    42 NAA=    21 NBB=    15.
 Norm of the A-vectors is  2.8778983D-03 conv= 1.00D-05.
 RLE energy=       -0.3862389455
 DE(Corr)= -0.38622965     E(CORR)=     -150.58865170     Delta=-6.41D-06
 NORM(A)=   0.10725468D+01
 Iteration Nr.   8
 **********************
 DD1Dir will call FoFMem   1 times, MxPair=       120
 NAB=    42 NAA=    21 NBB=    15.
 Norm of the A-vectors is  1.1417560D-03 conv= 1.00D-05.
 RLE energy=       -0.3862223590
 DE(Corr)= -0.38622490     E(CORR)=     -150.58864695     Delta= 4.75D-06
 NORM(A)=   0.10725634D+01
 Iteration Nr.   9
 **********************
 DD1Dir will call FoFMem   1 times, MxPair=       120
 NAB=    42 NAA=    21 NBB=    15.
 Norm of the A-vectors is  5.6339068D-04 conv= 1.00D-05.
 RLE energy=       -0.3862344824
 DE(Corr)= -0.38623406     E(CORR)=     -150.58865612     Delta=-9.16D-06
 NORM(A)=   0.10725605D+01
 Iteration Nr.  10
 **********************
 DD1Dir will call FoFMem   1 times, MxPair=       120
 NAB=    42 NAA=    21 NBB=    15.
 Norm of the A-vectors is  2.1755734D-04 conv= 1.00D-05.
 RLE energy=       -0.3862331388
 DE(Corr)= -0.38623175     E(CORR)=     -150.58865380     Delta= 2.31D-06
 NORM(A)=   0.10725646D+01
 Iteration Nr.  11
 **********************
 DD1Dir will call FoFMem   1 times, MxPair=       120
 NAB=    42 NAA=    21 NBB=    15.
 Norm of the A-vectors is  9.4943277D-05 conv= 1.00D-05.
 RLE energy=       -0.3862335031
 DE(Corr)= -0.38623330     E(CORR)=     -150.58865535     Delta=-1.55D-06
 NORM(A)=   0.10725668D+01
 Iteration Nr.  12
 **********************
 DD1Dir will call FoFMem   1 times, MxPair=       120
 NAB=    42 NAA=    21 NBB=    15.
 Norm of the A-vectors is  4.3155541D-05 conv= 1.00D-05.
 RLE energy=       -0.3862341367
 DE(Corr)= -0.38623357     E(CORR)=     -150.58865562     Delta=-2.70D-07
 NORM(A)=   0.10725702D+01
 Iteration Nr.  13
 **********************
 DD1Dir will call FoFMem   1 times, MxPair=       120
 NAB=    42 NAA=    21 NBB=    15.
 Norm of the A-vectors is  2.3084068D-05 conv= 1.00D-05.
 RLE energy=       -0.3862343624
 DE(Corr)= -0.38623414     E(CORR)=     -150.58865619     Delta=-5.72D-07
 NORM(A)=   0.10725719D+01
 Iteration Nr.  14
 **********************
 DD1Dir will call FoFMem   1 times, MxPair=       120
 NAB=    42 NAA=    21 NBB=    15.
 Norm of the A-vectors is  1.2553512D-05 conv= 1.00D-05.
 RLE energy=       -0.3862346552
 DE(Corr)= -0.38623445     E(CORR)=     -150.58865651     Delta=-3.15D-07
 NORM(A)=   0.10725731D+01
 Iteration Nr.  15
 **********************
 DD1Dir will call FoFMem   1 times, MxPair=       120
 NAB=    42 NAA=    21 NBB=    15.
 Norm of the A-vectors is  7.4718338D-06 conv= 1.00D-05.
 RLE energy=       -0.3862347463
 DE(Corr)= -0.38623465     E(CORR)=     -150.58865671     Delta=-1.98D-07
 NORM(A)=   0.10725737D+01
 Iteration Nr.  16
 **********************
 DD1Dir will call FoFMem   1 times, MxPair=       120
 NAB=    42 NAA=    21 NBB=    15.
 Norm of the A-vectors is  3.8688886D-06 conv= 1.00D-05.
 RLE energy=       -0.3862347681
 DE(Corr)= -0.38623476     E(CORR)=     -150.58865681     Delta=-1.07D-07
 NORM(A)=   0.10725738D+01
 Iteration Nr.  17
 **********************
 DD1Dir will call FoFMem   1 times, MxPair=       120
 NAB=    42 NAA=    21 NBB=    15.
 Norm of the A-vectors is  1.7667440D-06 conv= 1.00D-05.
 RLE energy=       -0.3862347663
 DE(Corr)= -0.38623476     E(CORR)=     -150.58865682     Delta=-1.41D-09
 NORM(A)=   0.10725738D+01
 CI/CC converged in   17 iterations to DelEn=-1.41D-09 Conv= 1.00D-07 ErrA1= 1.77D-06 Conv= 1.00D-05
 T1 Diagnostic =     0.03153583
 Dominant configurations:
 ***********************
 Spin Case        I    J    A    B          Value
    BB            7        10            0.143889D+00
 Largest amplitude= 1.44D-01
 Time for triples=       27.36 seconds.
 T4(CCSD)= -0.14169614D-01
 T5(CCSD)=  0.21516101D-02
 CCSD(T)= -0.15060067482D+03

 S**2, projected HF & approx projected MPn energies after annihilation of
 unwanted spin states (see manual for definitions):

 spins       (S**2,0) (S**2,1)    PUHF        PMP2        PMP3        PMP4
 annihilated
 s+1         0.74993  0.75004 -150.206921 -150.571284 -150.578722
 s+1,s+2     0.75000  0.75000 -150.206902 -150.571266 -150.578706
 s+1 to s+3  0.75000  0.75000 -150.206902 -150.571266 -150.578706
 s+1 to s+4  0.75000  0.75000 -150.206902 -150.571266 -150.578706
 s+1 to s+5  0.75000  0.75000 -150.206902
 s+1 to s+6  0.75000  0.75000 -150.206902

 Discarding MO integrals.
 Leave Link  913 at Thu Aug 31 18:54:27 2023, MaxMem= 17179869184 cpu:       170.8
 (Enter /opt/local/g09/l601.exe)
 Copying SCF densities to generalized density rwf, IOpCl= 1 IROHF=0.

 **********************************************************************

            Population analysis using the SCF density.

 **********************************************************************

 Orbital symmetries:
 Alpha Orbitals:
       Occupied  (A') (A') (A') (A') (A') (A") (A') (A") (A')
       Virtual   (A') (A') (A') (A") (A') (A') (A") (A') (A') (A')
                 (A") (A') (A') (A') (A') (A") (A') (A") (A') (A')
                 (A") (A") (A') (A') (A") (A') (A') (A') (A") (A')
                 (A") (A') (A') (A') (A') (A') (A") (A') (A") (A')
                 (A") (A') (A') (A") (A') (A')
 Beta  Orbitals:
       Occupied  (A') (A') (A') (A') (A') (A') (A") (A')
       Virtual   (A') (A") (A') (A') (A") (A') (A') (A') (A") (A')
                 (A') (A") (A') (A') (A') (A') (A") (A') (A") (A')
                 (A') (A") (A') (A') (A") (A') (A") (A') (A') (A")
                 (A') (A") (A') (A') (A') (A') (A') (A") (A') (A")
                 (A') (A') (A") (A') (A") (A') (A')
 The electronic state is 2-A".
 Alpha  occ. eigenvalues --  -20.69892 -20.68290  -1.58270  -1.21349  -0.77513
 Alpha  occ. eigenvalues --   -0.75726  -0.67791  -0.52764  -0.52513
 Alpha virt. eigenvalues --    0.03627   0.12158   0.16807   0.18713   0.21759
 Alpha virt. eigenvalues --    0.23601   0.23789   0.24092   0.33343   0.34185
 Alpha virt. eigenvalues --    0.38584   0.43846   0.47183   0.61446   0.84458
 Alpha virt. eigenvalues --    0.94374   0.95749   1.01521   1.07339   1.10429
 Alpha virt. eigenvalues --    1.17159   1.23579   1.23983   1.29202   1.31775
 Alpha virt. eigenvalues --    1.37774   1.42143   1.56269   1.68351   1.73693
 Alpha virt. eigenvalues --    2.05451   2.20991   2.38732   2.43037   2.71662
 Alpha virt. eigenvalues --    3.24156   3.25712   3.41181   3.48201   3.50492
 Alpha virt. eigenvalues --    3.62083   3.62345   3.83844   3.84495   4.09031
 Alpha virt. eigenvalues --    4.29357
  Beta  occ. eigenvalues --  -20.67525 -20.65728  -1.52024  -1.11046  -0.75484
  Beta  occ. eigenvalues --   -0.65288  -0.57178  -0.48739
  Beta virt. eigenvalues --    0.03655   0.09624   0.12497   0.16857   0.20177
  Beta virt. eigenvalues --    0.21969   0.23637   0.24260   0.28217   0.33409
  Beta virt. eigenvalues --    0.36842   0.38714   0.44614   0.47492   0.61671
  Beta virt. eigenvalues --    0.84499   0.96196   0.97973   1.04237   1.07614
  Beta virt. eigenvalues --    1.10893   1.18690   1.25663   1.30273   1.31564
  Beta virt. eigenvalues --    1.38976   1.40986   1.43293   1.56867   1.72640
  Beta virt. eigenvalues --    1.74397   2.05542   2.21131   2.39445   2.44794
  Beta virt. eigenvalues --    2.72011   3.27024   3.30368   3.42433   3.56851
  Beta virt. eigenvalues --    3.58676   3.64075   3.64655   3.85391   3.90371
  Beta virt. eigenvalues --    4.10958   4.30929
          Condensed to atoms (all electrons):
               1          2          3
     1  H    0.505703   0.330774  -0.090446
     2  O    0.330774   8.097585  -0.235944
     3  O   -0.090446  -0.235944   8.387945
          Atomic-Atomic Spin Densities.
               1          2          3
     1  H   -0.014046  -0.002900  -0.007182
     2  O   -0.002900   0.177866  -0.099134
     3  O   -0.007182  -0.099134   1.054613
 Mulliken charges and spin densities:
               1          2
     1  H    0.253969  -0.024129
     2  O   -0.192415   0.075832
     3  O   -0.061554   0.948297
 Sum of Mulliken charges =   0.00000   1.00000
 Mulliken charges and spin densities with hydrogens summed into heavy atoms:
               1          2
     2  O    0.061554   0.051703
     3  O   -0.061554   0.948297
 Electronic spatial extent (au):  <R**2>=             54.6448
 Charge=              0.0000 electrons
 Dipole moment (field-independent basis, Debye):
    X=              1.7659    Y=             -0.9371    Z=              0.0000  Tot=              1.9992
 Quadrupole moment (field-independent basis, Debye-Ang):
   XX=             -9.8642   YY=            -10.8456   ZZ=            -11.0241
   XY=             -1.7779   XZ=              0.0000   YZ=              0.0000
 Traceless Quadrupole moment (field-independent basis, Debye-Ang):
   XX=              0.7138   YY=             -0.2677   ZZ=             -0.4461
   XY=             -1.7779   XZ=              0.0000   YZ=              0.0000
 Octapole moment (field-independent basis, Debye-Ang**2):
  XXX=              2.3138  YYY=             -1.3650  ZZZ=              0.0000  XYY=              1.7899
  XXY=             -1.9639  XXZ=              0.0000  XZZ=              0.1880  YZZ=              0.5350
  YYZ=              0.0000  XYZ=              0.0000
 Hexadecapole moment (field-independent basis, Debye-Ang**3):
 XXXX=             -9.0980 YYYY=            -36.2870 ZZZZ=             -8.2512 XXXY=             -0.4732
 XXXZ=              0.0000 YYYX=             -0.6671 YYYZ=              0.0000 ZZZX=              0.0000
 ZZZY=              0.0000 XXYY=             -7.5790 XXZZ=             -3.1698 YYZZ=             -7.8869
 XXYZ=              0.0000 YYXZ=              0.0000 ZZXY=              0.2567
 N-N= 3.212123215301D+01 E-N=-4.208413475252D+02  KE= 1.500652454884D+02
 Symmetry A'   KE= 1.427689302357D+02
 Symmetry A"   KE= 7.296315252612D+00
 Leave Link  601 at Thu Aug 31 18:54:27 2023, MaxMem= 17179869184 cpu:         6.3
 (Enter /opt/local/g09/l9999.exe)
 1\1\GINC-N216\SP\UCCSD(T)-FC\Aug-CC-pVDZ\H1O2(2)\XIZK\31-Aug-2023\0\\#
 p CCSD(T,T1Diag)/aug-cc-pvdz geom=check guess=read\\Title Card Require
 d\\0,2\H,0,1.7768979855,0.2826674433,0.\O,0,2.5327204834,-0.3335014787
 ,0.\O,0,3.6128891311,0.4408153653,0.\\Version=EM64L-G09RevD.01\State=2
 -A"\HF=-150.2024221\MP2=-150.5684799\MP3=-150.5770278\MP4D=-150.585298
 3\MP4DQ=-150.5792166\PUHF=-150.2069208\PMP2-0=-150.5712839\PMP3-0=-150
 .5787222\MP4SDQ=-150.5858214\CCSD=-150.5886568\CCSD(T)=-150.6006748\S2
 =0.762768\S2-1=0.753094\S2A=0.750121\RMSD=3.194e-09\PG=CS [SG(H1O2)]\\
 @


 IT IS A QUALITY OF REVOLUTIONS NOT TO GO BY OLD LINES OR OLD LAWS,
 BUT TO BREAK UP BOTH, AND MAKE NEW ONES.
                                              -- A. LINCOLN (1848)
 Job cpu time:       0 days  0 hours  3 minutes 38.1 seconds.
 File lengths (MBytes):  RWF=     32 Int=      0 D2E=      0 Chk=      2 Scr=      1
 Normal termination of Gaussian 09 at Thu Aug 31 18:54:28 2023.
