 Entering Gaussian System, Link 0=g09
 Input=N2O_ccsdt_avdz.gjf
 Output=N2O_ccsdt_avdz.log
 Initial command:
 /opt/local/g09/l1.exe "/data/tmp/Gau-62057.inp" -scrdir="/data/tmp/"
 Entering Link 1 = /opt/local/g09/l1.exe PID=     62058.
  
 Copyright (c) 1988,1990,1992,1993,1995,1998,2003,2009,2013,
            Gaussian, Inc.  All Rights Reserved.
  
 This is part of the Gaussian(R) 09 program.  It is based on
 the Gaussian(R) 03 system (copyright 2003, Gaussian, Inc.),
 the Gaussian(R) 98 system (copyright 1998, Gaussian, Inc.),
 the Gaussian(R) 94 system (copyright 1995, Gaussian, Inc.),
 the Gaussian 92(TM) system (copyright 1992, Gaussian, Inc.),
 the Gaussian 90(TM) system (copyright 1990, Gaussian, Inc.),
 the Gaussian 88(TM) system (copyright 1988, Gaussian, Inc.),
 the Gaussian 86(TM) system (copyright 1986, Carnegie Mellon
 University), and the Gaussian 82(TM) system (copyright 1983,
 Carnegie Mellon University). Gaussian is a federally registered
 trademark of Gaussian, Inc.
  
 This software contains proprietary and confidential information,
 including trade secrets, belonging to Gaussian, Inc.
  
 This software is provided under written license and may be
 used, copied, transmitted, or stored only in accord with that
 written license.
  
 The following legend is applicable only to US Government
 contracts under FAR:
  
                    RESTRICTED RIGHTS LEGEND
  
 Use, reproduction and disclosure by the US Government is
 subject to restrictions as set forth in subparagraphs (a)
 and (c) of the Commercial Computer Software - Restricted
 Rights clause in FAR 52.227-19.
  
 Gaussian, Inc.
 340 Quinnipiac St., Bldg. 40, Wallingford CT 06492
  
  
 ---------------------------------------------------------------
 Warning -- This program may not be used in any manner that
 competes with the business of Gaussian, Inc. or will provide
 assistance to any competitor of Gaussian, Inc.  The licensee
 of this program is prohibited from giving any competitor of
 Gaussian, Inc. access to this program.  By using this program,
 the user acknowledges that Gaussian, Inc. is engaged in the
 business of creating and licensing software in the field of
 computational chemistry and represents and warrants to the
 licensee that it is not a competitor of Gaussian, Inc. and that
 it will not use this program in any manner prohibited above.
 ---------------------------------------------------------------
  

 Cite this work as:
 Gaussian 09, Revision D.01,
 M. J. Frisch, G. W. Trucks, H. B. Schlegel, G. E. Scuseria, 
 M. A. Robb, J. R. Cheeseman, G. Scalmani, V. Barone, B. Mennucci, 
 G. A. Petersson, H. Nakatsuji, M. Caricato, X. Li, H. P. Hratchian, 
 A. F. Izmaylov, J. Bloino, G. Zheng, J. L. Sonnenberg, M. Hada, 
 M. Ehara, K. Toyota, R. Fukuda, J. Hasegawa, M. Ishida, T. Nakajima, 
 Y. Honda, O. Kitao, H. Nakai, T. Vreven, J. A. Montgomery, Jr., 
 J. E. Peralta, F. Ogliaro, M. Bearpark, J. J. Heyd, E. Brothers, 
 K. N. Kudin, V. N. Staroverov, T. Keith, R. Kobayashi, J. Normand, 
 K. Raghavachari, A. Rendell, J. C. Burant, S. S. Iyengar, J. Tomasi, 
 M. Cossi, N. Rega, J. M. Millam, M. Klene, J. E. Knox, J. B. Cross, 
 V. Bakken, C. Adamo, J. Jaramillo, R. Gomperts, R. E. Stratmann, 
 O. Yazyev, A. J. Austin, R. Cammi, C. Pomelli, J. W. Ochterski, 
 R. L. Martin, K. Morokuma, V. G. Zakrzewski, G. A. Voth, 
 P. Salvador, J. J. Dannenberg, S. Dapprich, A. D. Daniels, 
 O. Farkas, J. B. Foresman, J. V. Ortiz, J. Cioslowski, 
 and D. J. Fox, Gaussian, Inc., Wallingford CT, 2013.
 
 ******************************************
 Gaussian 09:  EM64L-G09RevD.01 24-Apr-2013
                31-Aug-2023 
 ******************************************
 %nprocshared=32
 Will use up to   32 processors via shared memory.
 %mem=128GB
 %chk=N2O_ccsdt_avdz.chk
 ---------------------------------------------------
 #p CCSD(T,T1Diag)/aug-cc-pvdz geom=check guess=read
 ---------------------------------------------------
 1/29=2,38=1/1;
 2/12=2,40=1/2;
 3/5=16,7=10,11=9,14=-4,16=1,25=1,30=1,116=-2/1,2,3;
 4/5=1/1;
 5/5=2,38=6/2;
 8/6=4,9=120000,10=1/1,4;
 9/5=7,14=2,36=1/13;
 6/7=2,8=2,9=2,10=2/1;
 99/5=1,9=1/99;
 Leave Link    1 at Thu Aug 31 18:54:28 2023, MaxMem= 17179869184 cpu:         1.5
 (Enter /opt/local/g09/l101.exe)
 -------------------
 Title Card Required
 -------------------
 Structure from the checkpoint file:  "N2O_ccsdt_avdz.chk"
 Charge =  0 Multiplicity = 1
 Redundant internal coordinates found in file.
 O,0,1.1627571357,0.,0.
 N,0,-0.0205290033,0.,0.
 N,0,-1.1422281324,0.,0.
 Recover connectivity data from disk.
 NAtoms=      3 NQM=        3 NQMF=       0 NMMI=      0 NMMIF=      0
                NMic=       0 NMicF=      0.
                    Isotopes and Nuclear Properties:
 (Nuclear quadrupole moments (NQMom) in fm**2, nuclear magnetic moments (NMagM)
  in nuclear magnetons)

  Atom         1           2           3
 IAtWgt=          16          14          14
 AtmWgt=  15.9949146  14.0030740  14.0030740
 NucSpn=           0           2           2
 AtZEff=  -5.6000000  -4.5500000  -4.5500000
 NQMom=    0.0000000   2.0440000   2.0440000
 NMagM=    0.0000000   0.4037610   0.4037610
 AtZNuc=   8.0000000   7.0000000   7.0000000
 Leave Link  101 at Thu Aug 31 18:54:28 2023, MaxMem= 17179869184 cpu:         3.5
 (Enter /opt/local/g09/l202.exe)
                          Input orientation:                          
 ---------------------------------------------------------------------
 Center     Atomic      Atomic             Coordinates (Angstroms)
 Number     Number       Type             X           Y           Z
 ---------------------------------------------------------------------
      1          8           0        1.162757    0.000000    0.000000
      2          7           0       -0.020529    0.000000    0.000000
      3          7           0       -1.142228    0.000000    0.000000
 ---------------------------------------------------------------------
                    Distance matrix (angstroms):
                    1          2          3
     1  O    0.000000
     2  N    1.183286   0.000000
     3  N    2.304985   1.121699   0.000000
 Stoichiometry    N2O
 Framework group  C*V[C*(NNO)]
 Deg. of freedom     2
 Full point group                 C*V     NOp   4
 RotChk:  IX=0 Diff= 0.00D+00
 Largest Abelian subgroup         C2V     NOp   4
 Largest concise Abelian subgroup C1      NOp   1
                         Standard orientation:                         
 ---------------------------------------------------------------------
 Center     Atomic      Atomic             Coordinates (Angstroms)
 Number     Number       Type             X           Y           Z
 ---------------------------------------------------------------------
      1          8           0        0.000000    0.000000    1.109905
      2          7           0        0.000000    0.000000   -0.073382
      3          7           0        0.000000    0.000000   -1.195081
 ---------------------------------------------------------------------
 Rotational constants (GHZ):      0.0000000     12.7047358     12.7047358
 Leave Link  202 at Thu Aug 31 18:54:28 2023, MaxMem= 17179869184 cpu:         0.4
 (Enter /opt/local/g09/l301.exe)
 Standard basis: Aug-CC-pVDZ (5D, 7F)
 Ernie: Thresh=  0.10000D-02 Tol=  0.10000D-05 Strict=F.
 Ernie:  6 primitive shells out of 75 were deleted.
 There are    39 symmetry adapted cartesian basis functions of A1  symmetry.
 There are     6 symmetry adapted cartesian basis functions of A2  symmetry.
 There are    15 symmetry adapted cartesian basis functions of B1  symmetry.
 There are    15 symmetry adapted cartesian basis functions of B2  symmetry.
 There are    33 symmetry adapted basis functions of A1  symmetry.
 There are     6 symmetry adapted basis functions of A2  symmetry.
 There are    15 symmetry adapted basis functions of B1  symmetry.
 There are    15 symmetry adapted basis functions of B2  symmetry.
    69 basis functions,   129 primitive gaussians,    75 cartesian basis functions
    11 alpha electrons       11 beta electrons
       nuclear repulsion energy        61.0166328130 Hartrees.
 IExCor=    0 DFT=F Ex=HF Corr=None ExCW=0 ScaHFX=  1.000000
 ScaDFX=  1.000000  1.000000  1.000000  1.000000 ScalE2=  1.000000  1.000000
 IRadAn=      0 IRanWt=     -1 IRanGd=            0 ICorTp=0 IEmpDi=  4
 NAtoms=    3 NActive=    3 NUniq=    3 SFac= 1.00D+00 NAtFMM=   60 NAOKFM=F Big=F
 Integral buffers will be    131072 words long.
 Raffenetti 1 integral format.
 Two-electron integral symmetry is turned on.
 Leave Link  301 at Thu Aug 31 18:54:28 2023, MaxMem= 17179869184 cpu:         0.5
 (Enter /opt/local/g09/l302.exe)
 NPDir=0 NMtPBC=     1 NCelOv=     1 NCel=       1 NClECP=     1 NCelD=      1
         NCelK=      1 NCelE2=     1 NClLst=     1 CellRange=     0.0.
 One-electron integrals computed using PRISM.
 NBasis=    69 RedAO= T EigKep=  1.86D-04  NBF=    33     6    15    15
 NBsUse=    69 1.00D-06 EigRej= -1.00D+00 NBFU=    33     6    15    15
 Leave Link  302 at Thu Aug 31 18:54:28 2023, MaxMem= 17179869184 cpu:         2.5
 (Enter /opt/local/g09/l303.exe)
 DipDrv:  MaxL=1.
 Leave Link  303 at Thu Aug 31 18:54:28 2023, MaxMem= 17179869184 cpu:         0.9
 (Enter /opt/local/g09/l401.exe)
 Initial guess from the checkpoint file:  "N2O_ccsdt_avdz.chk"
 B after Tr=     0.000000    0.000000    0.000000
         Rot=    1.000000    0.000000    0.000000    0.000000 Ang=   0.00 deg.
 Guess basis will be translated and rotated to current coordinates.
 JPrj=2 DoOrth=T DoCkMO=T.
 Initial guess orbital symmetries:
       Occupied  (SG) (SG) (SG) (SG) (SG) (SG) (PI) (PI) (SG) (PI)
                 (PI)
       Virtual   (PI) (PI) (SG) (SG) (PI) (PI) (SG) (SG) (PI) (PI)
                 (SG) (PI) (PI) (DLTA) (DLTA) (SG) (SG) (PI) (PI)
                 (DLTA) (DLTA) (SG) (DLTA) (DLTA) (PI) (PI) (SG)
                 (SG) (PI) (PI) (SG) (PI) (PI) (SG) (PI) (PI) (SG)
                 (DLTA) (DLTA) (PI) (PI) (PI) (PI) (SG) (PI) (PI)
                 (?A) (SG) (?A) (?A) (?A) (SG) (?A) (?A) (?A) (?A)
                 (PI) (PI)
 The electronic state of the initial guess is 1-SG.
 Leave Link  401 at Thu Aug 31 18:54:28 2023, MaxMem= 17179869184 cpu:         1.6
 (Enter /opt/local/g09/l502.exe)
 Closed shell SCF:
 Using DIIS extrapolation, IDIIS=  1040.
 Integral symmetry usage will be decided dynamically.
 Keep R1 ints in memory in symmetry-blocked form, NReq=3821198.
 IVT=       38470 IEndB=       38470 NGot= 17179869184 MDV= 17179052731
 LenX= 17179052731 LenY= 17179046665
 Requested convergence on RMS density matrix=1.00D-08 within 128 cycles.
 Requested convergence on MAX density matrix=1.00D-06.
 Requested convergence on             energy=1.00D-06.
 No special actions if energy rises.
 FoFCou: FMM=F IPFlag=           0 FMFlag=           0 FMFlg1=           0
         NFxFlg=           0 DoJE=F BraDBF=F KetDBF=F FulRan=T
         wScrn=  0.000000 ICntrl=     600 IOpCl=  0 I1Cent=           0 NGrid=           0
         NMat0=    1 NMatS0=   2415 NMatT0=    0 NMatD0=    1 NMtDS0=    0 NMtDT0=    0
 Petite list used in FoFCou.
 An orbital has undefined symmetry, so N**3 symmetry is turned off.

 Cycle   1  Pass 1  IDiag  1:
 E= -183.686377742348    
 DIIS: error= 1.82D-02 at cycle   1 NSaved=   1.
 NSaved= 1 IEnMin= 1 EnMin= -183.686377742348     IErMin= 1 ErrMin= 1.82D-02
 ErrMax= 1.82D-02  0.00D+00 EMaxC= 1.00D-01 BMatC= 3.52D-02 BMatP= 3.52D-02
 IDIUse=3 WtCom= 8.18D-01 WtEn= 1.82D-01
 Coeff-Com:  0.100D+01
 Coeff-En:   0.100D+01
 Coeff:      0.100D+01
 Gap=     0.651 Goal=   None    Shift=    0.000
 GapD=    0.651 DampG=2.000 DampE=0.500 DampFc=1.0000 IDamp=-1.
 RMSDP=9.70D-03 MaxDP=1.49D-01              OVMax= 4.00D-02

 Cycle   2  Pass 1  IDiag  1:
 E= -183.708281702048     Delta-E=       -0.021903959699 Rises=F Damp=F
 DIIS: error= 5.50D-03 at cycle   2 NSaved=   2.
 NSaved= 2 IEnMin= 2 EnMin= -183.708281702048     IErMin= 2 ErrMin= 5.50D-03
 ErrMax= 5.50D-03  0.00D+00 EMaxC= 1.00D-01 BMatC= 2.14D-03 BMatP= 3.52D-02
 IDIUse=3 WtCom= 9.45D-01 WtEn= 5.50D-02
 Coeff-Com: -0.223D-01 0.102D+01
 Coeff-En:   0.000D+00 0.100D+01
 Coeff:     -0.211D-01 0.102D+01
 Gap=     0.575 Goal=   None    Shift=    0.000
 RMSDP=2.08D-03 MaxDP=3.28D-02 DE=-2.19D-02 OVMax= 1.40D-02

 Cycle   3  Pass 1  IDiag  1:
 E= -183.709871972248     Delta-E=       -0.001590270200 Rises=F Damp=F
 DIIS: error= 3.55D-03 at cycle   3 NSaved=   3.
 NSaved= 3 IEnMin= 3 EnMin= -183.709871972248     IErMin= 3 ErrMin= 3.55D-03
 ErrMax= 3.55D-03  0.00D+00 EMaxC= 1.00D-01 BMatC= 5.62D-04 BMatP= 2.14D-03
 IDIUse=3 WtCom= 9.65D-01 WtEn= 3.55D-02
 Coeff-Com: -0.385D-01 0.319D+00 0.719D+00
 Coeff-En:   0.000D+00 0.000D+00 0.100D+01
 Coeff:     -0.371D-01 0.308D+00 0.729D+00
 Gap=     0.575 Goal=   None    Shift=    0.000
 RMSDP=4.02D-04 MaxDP=6.30D-03 DE=-1.59D-03 OVMax= 9.05D-03

 Cycle   4  Pass 1  IDiag  1:
 E= -183.710418562461     Delta-E=       -0.000546590213 Rises=F Damp=F
 DIIS: error= 1.30D-03 at cycle   4 NSaved=   4.
 NSaved= 4 IEnMin= 4 EnMin= -183.710418562461     IErMin= 4 ErrMin= 1.30D-03
 ErrMax= 1.30D-03  0.00D+00 EMaxC= 1.00D-01 BMatC= 1.12D-04 BMatP= 5.62D-04
 IDIUse=3 WtCom= 9.87D-01 WtEn= 1.30D-02
 Coeff-Com: -0.834D-02-0.417D-01 0.245D+00 0.805D+00
 Coeff-En:   0.000D+00 0.000D+00 0.000D+00 0.100D+01
 Coeff:     -0.823D-02-0.411D-01 0.242D+00 0.807D+00
 Gap=     0.572 Goal=   None    Shift=    0.000
 RMSDP=2.66D-04 MaxDP=3.98D-03 DE=-5.47D-04 OVMax= 2.56D-03

 Cycle   5  Pass 1  IDiag  1:
 E= -183.710520143995     Delta-E=       -0.000101581534 Rises=F Damp=F
 DIIS: error= 3.76D-04 at cycle   5 NSaved=   5.
 NSaved= 5 IEnMin= 5 EnMin= -183.710520143995     IErMin= 5 ErrMin= 3.76D-04
 ErrMax= 3.76D-04  0.00D+00 EMaxC= 1.00D-01 BMatC= 1.07D-05 BMatP= 1.12D-04
 IDIUse=3 WtCom= 9.96D-01 WtEn= 3.76D-03
 Coeff-Com:  0.578D-02-0.745D-01-0.485D-01 0.110D+00 0.101D+01
 Coeff-En:   0.000D+00 0.000D+00 0.000D+00 0.000D+00 0.100D+01
 Coeff:      0.575D-02-0.742D-01-0.483D-01 0.109D+00 0.101D+01
 Gap=     0.573 Goal=   None    Shift=    0.000
 RMSDP=1.19D-04 MaxDP=2.08D-03 DE=-1.02D-04 OVMax= 1.76D-03

 Cycle   6  Pass 1  IDiag  1:
 E= -183.710536822230     Delta-E=       -0.000016678235 Rises=F Damp=F
 DIIS: error= 2.71D-04 at cycle   6 NSaved=   6.
 NSaved= 6 IEnMin= 6 EnMin= -183.710536822230     IErMin= 6 ErrMin= 2.71D-04
 ErrMax= 2.71D-04  0.00D+00 EMaxC= 1.00D-01 BMatC= 3.43D-06 BMatP= 1.07D-05
 IDIUse=3 WtCom= 9.97D-01 WtEn= 2.71D-03
 Coeff-Com:  0.316D-02-0.192D-01-0.446D-01-0.957D-01 0.445D+00 0.711D+00
 Coeff-En:   0.000D+00 0.000D+00 0.000D+00 0.000D+00 0.000D+00 0.100D+01
 Coeff:      0.315D-02-0.192D-01-0.445D-01-0.955D-01 0.444D+00 0.712D+00
 Gap=     0.573 Goal=   None    Shift=    0.000
 RMSDP=3.12D-05 MaxDP=5.51D-04 DE=-1.67D-05 OVMax= 4.80D-04

 Cycle   7  Pass 1  IDiag  1:
 E= -183.710540182070     Delta-E=       -0.000003359840 Rises=F Damp=F
 DIIS: error= 6.48D-05 at cycle   7 NSaved=   7.
 NSaved= 7 IEnMin= 7 EnMin= -183.710540182070     IErMin= 7 ErrMin= 6.48D-05
 ErrMax= 6.48D-05  0.00D+00 EMaxC= 1.00D-01 BMatC= 1.50D-07 BMatP= 3.43D-06
 IDIUse=1 WtCom= 1.00D+00 WtEn= 0.00D+00
 Coeff-Com: -0.113D-02 0.136D-01 0.121D-01-0.150D-01-0.180D+00-0.219D+00
 Coeff-Com:  0.139D+01
 Coeff:     -0.113D-02 0.136D-01 0.121D-01-0.150D-01-0.180D+00-0.219D+00
 Coeff:      0.139D+01
 Gap=     0.573 Goal=   None    Shift=    0.000
 RMSDP=1.93D-05 MaxDP=3.08D-04 DE=-3.36D-06 OVMax= 3.16D-04

 Cycle   8  Pass 1  IDiag  1:
 E= -183.710540536194     Delta-E=       -0.000000354124 Rises=F Damp=F
 DIIS: error= 1.10D-05 at cycle   8 NSaved=   8.
 NSaved= 8 IEnMin= 8 EnMin= -183.710540536194     IErMin= 8 ErrMin= 1.10D-05
 ErrMax= 1.10D-05  0.00D+00 EMaxC= 1.00D-01 BMatC= 3.58D-09 BMatP= 1.50D-07
 IDIUse=1 WtCom= 1.00D+00 WtEn= 0.00D+00
 Coeff-Com:  0.112D-03-0.178D-02-0.113D-02 0.393D-02 0.250D-01 0.133D-02
 Coeff-Com: -0.231D+00 0.120D+01
 Coeff:      0.112D-03-0.178D-02-0.113D-02 0.393D-02 0.250D-01 0.133D-02
 Coeff:     -0.231D+00 0.120D+01
 Gap=     0.573 Goal=   None    Shift=    0.000
 RMSDP=2.51D-06 MaxDP=4.10D-05 DE=-3.54D-07 OVMax= 3.06D-05

 Cycle   9  Pass 1  IDiag  1:
 E= -183.710540541495     Delta-E=       -0.000000005301 Rises=F Damp=F
 DIIS: error= 1.84D-06 at cycle   9 NSaved=   9.
 NSaved= 9 IEnMin= 9 EnMin= -183.710540541495     IErMin= 9 ErrMin= 1.84D-06
 ErrMax= 1.84D-06  0.00D+00 EMaxC= 1.00D-01 BMatC= 1.07D-10 BMatP= 3.58D-09
 IDIUse=1 WtCom= 1.00D+00 WtEn= 0.00D+00
 Coeff-Com: -0.105D-04 0.216D-03 0.923D-04-0.873D-03-0.252D-02 0.376D-03
 Coeff-Com:  0.411D-01-0.360D+00 0.132D+01
 Coeff:     -0.105D-04 0.216D-03 0.923D-04-0.873D-03-0.252D-02 0.376D-03
 Coeff:      0.411D-01-0.360D+00 0.132D+01
 Gap=     0.573 Goal=   None    Shift=    0.000
 RMSDP=6.49D-07 MaxDP=1.30D-05 DE=-5.30D-09 OVMax= 6.37D-06

 Cycle  10  Pass 1  IDiag  1:
 E= -183.710540541659     Delta-E=       -0.000000000164 Rises=F Damp=F
 DIIS: error= 2.98D-07 at cycle  10 NSaved=  10.
 NSaved=10 IEnMin=10 EnMin= -183.710540541659     IErMin=10 ErrMin= 2.98D-07
 ErrMax= 2.98D-07  0.00D+00 EMaxC= 1.00D-01 BMatC= 2.62D-12 BMatP= 1.07D-10
 IDIUse=1 WtCom= 1.00D+00 WtEn= 0.00D+00
 Coeff-Com: -0.229D-05 0.202D-04 0.345D-04 0.985D-04-0.339D-03-0.107D-02
 Coeff-Com: -0.133D-02 0.650D-01-0.396D+00 0.133D+01
 Coeff:     -0.229D-05 0.202D-04 0.345D-04 0.985D-04-0.339D-03-0.107D-02
 Coeff:     -0.133D-02 0.650D-01-0.396D+00 0.133D+01
 Gap=     0.573 Goal=   None    Shift=    0.000
 RMSDP=6.23D-08 MaxDP=1.01D-06 DE=-1.64D-10 OVMax= 1.13D-06

 Cycle  11  Pass 1  IDiag  1:
 E= -183.710540541664     Delta-E=       -0.000000000005 Rises=F Damp=F
 DIIS: error= 3.95D-08 at cycle  11 NSaved=  11.
 NSaved=11 IEnMin=11 EnMin= -183.710540541664     IErMin=11 ErrMin= 3.95D-08
 ErrMax= 3.95D-08  0.00D+00 EMaxC= 1.00D-01 BMatC= 5.08D-14 BMatP= 2.62D-12
 IDIUse=1 WtCom= 1.00D+00 WtEn= 0.00D+00
 Coeff-Com:  0.654D-06-0.807D-05-0.105D-04-0.138D-04 0.142D-03 0.195D-03
 Coeff-Com: -0.313D-03-0.928D-02 0.721D-01-0.351D+00 0.129D+01
 Coeff:      0.654D-06-0.807D-05-0.105D-04-0.138D-04 0.142D-03 0.195D-03
 Coeff:     -0.313D-03-0.928D-02 0.721D-01-0.351D+00 0.129D+01
 Gap=     0.573 Goal=   None    Shift=    0.000
 RMSDP=1.48D-08 MaxDP=2.63D-07 DE=-4.60D-12 OVMax= 1.43D-07

 Cycle  12  Pass 1  IDiag  1:
 E= -183.710540541663     Delta-E=        0.000000000000 Rises=F Damp=F
 DIIS: error= 2.33D-09 at cycle  12 NSaved=  12.
 NSaved=12 IEnMin=11 EnMin= -183.710540541664     IErMin=12 ErrMin= 2.33D-09
 ErrMax= 2.33D-09  0.00D+00 EMaxC= 1.00D-01 BMatC= 5.27D-16 BMatP= 5.08D-14
 IDIUse=1 WtCom= 1.00D+00 WtEn= 0.00D+00
 Coeff-Com: -0.444D-07 0.667D-06 0.659D-06-0.291D-06-0.102D-04-0.116D-04
 Coeff-Com:  0.723D-04-0.873D-04-0.149D-02 0.178D-01-0.141D+00 0.112D+01
 Coeff:     -0.444D-07 0.667D-06 0.659D-06-0.291D-06-0.102D-04-0.116D-04
 Coeff:      0.723D-04-0.873D-04-0.149D-02 0.178D-01-0.141D+00 0.112D+01
 Gap=     0.573 Goal=   None    Shift=    0.000
 RMSDP=2.31D-09 MaxDP=4.36D-08 DE= 2.84D-13 OVMax= 1.18D-08

 SCF Done:  E(RHF) =  -183.710540542     A.U. after   12 cycles
            NFock= 12  Conv=0.23D-08     -V/T= 2.0023
 KE= 1.832931998581D+02 PE=-5.540612137712D+02 EE= 1.260408405584D+02
 Leave Link  502 at Thu Aug 31 18:54:28 2023, MaxMem= 17179869184 cpu:         5.9
 (Enter /opt/local/g09/l801.exe)
 Windowed orbitals will be sorted by symmetry type.
 ExpMin= 5.61D-02 ExpMax= 1.17D+04 ExpMxC= 4.01D+02 IAcc=3 IRadAn=         5 AccDes= 0.00D+00
 HarFok:  IExCor=  205 AccDes= 0.00D+00 IRadAn=         5 IDoV=-2 UseB2=F ITyADJ=14
 ICtDFT= 12500011 ScaDFX=  1.000000  1.000000  1.000000  1.000000
 Largest valence mixing into a core orbital is  1.14D-04
 Largest core mixing into a valence orbital is  4.24D-05
 Range of M.O.s used for correlation:     4    69
 NBasis=    69 NAE=    11 NBE=    11 NFC=     3 NFV=     0
 NROrb=     66 NOA=     8 NOB=     8 NVA=    58 NVB=    58

 **** Warning!!: The largest alpha MO coefficient is  0.41359489D+02

 Leave Link  801 at Thu Aug 31 18:54:29 2023, MaxMem= 17179869184 cpu:         2.7
 (Enter /opt/local/g09/l804.exe)
 Closed-shell transformation, MDV= 17179869184 ITran=4 ISComp=1.
 Semi-Direct transformation.
 ModeAB=           2 MOrb=             8 LenV=   17179620860
 LASXX=      1041970 LTotXX=     1041970 LenRXX=     1041970
 LTotAB=     1088796 MaxLAS=     1504800 LenRXY=     1504800
 NonZer=     2083940 LenScr=     3906560 LnRSAI=           0
 LnScr1=           0 LExtra=           0 Total=      6453330
 MaxDsk=          -1 SrtSym=           F ITran=            4
 DoSDTr:  NPSUse= 32
 JobTyp=0 Pass  1:  I=   1 to   8.
 (rs|ai) integrals will be sorted in core.
 Complete sort for first half transformation.
 First half transformation complete.
 Complete sort for second half transformation.
 Second half transformation complete.
 SymMOI:  orbitals are not symmetric.
 Spin components of T(2) and E(2):
     alpha-alpha T2 =       0.2665695772D-01 E2=     -0.7674987494D-01
     alpha-beta  T2 =       0.1322612804D+00 E2=     -0.3909239439D+00
     beta-beta   T2 =       0.2665695772D-01 E2=     -0.7674987494D-01
 ANorm=    0.1088841217D+01
 E2 =    -0.5444236938D+00 EUMP2 =    -0.18425496423545D+03
 Leave Link  804 at Thu Aug 31 18:54:29 2023, MaxMem= 17179869184 cpu:         8.5
 (Enter /opt/local/g09/l913.exe)
 CIDS:  MDV= 17179869184.
 Frozen-core window:  NFC=   3 NFV=   0.
 IFCWin=0 IBDFC=1 NFBD=     0     0 NFCmp=     0     0 NFFFC=     0     0
 Using DD3R+UMP44R for 1st iteration, S=T.
 Using DD4RQ for 2nd and later iterations.
 Keep R2 and R3 ints in memory in canonical form, NReq=6656064.
 FoFCou: FMM=F IPFlag=           0 FMFlag=           0 FMFlg1=           0
         NFxFlg=           0 DoJE=F BraDBF=F KetDBF=F FulRan=T
         wScrn=  0.000000 ICntrl=     600 IOpCl=  0 I1Cent=           0 NGrid=           0
         NMat0=    1 NMatS0=   2415 NMatT0=    0 NMatD0=    1 NMtDS0=    0 NMtDT0=    0
 Symmetry not used in FoFCou.
 CCSD(T)
 =======
 Iterations=  50 Convergence= 0.100D-06
 Iteration Nr.   1
 **********************
 DD1Dir will call FoFMem   1 times, MxPair=        72
 NAB=    36 NAA=     0 NBB=     0.
 MP4(R+Q)=  0.14922058D-01
 Maximum subspace dimension=  5
 Norm of the A-vectors is  8.7272297D-01 conv= 1.00D-05.
 RLE energy=       -0.5065323862
 E3=        0.24984337D-01        EUMP3=      -0.18422997990D+03
 E4(DQ)=   -0.48580018D-02        UMP4(DQ)=   -0.18423483790D+03
 E4(SDQ)=  -0.16616116D-01        UMP4(SDQ)=  -0.18424659602D+03
 VARIATIONAL ENERGIES WITH THE FIRST-ORDER WAVEFUNCTION:
 DE(Corr)= -0.50369906     E(Corr)=     -184.21423960    
 NORM(A)=   0.10779152D+01
 Iteration Nr.   2
 **********************
 DD1Dir will call FoFMem   1 times, MxPair=        72
 NAB=    36 NAA=     0 NBB=     0.
 Norm of the A-vectors is  3.5130975D-01 conv= 1.00D-05.
 RLE energy=       -0.5292992546
 DE(Corr)= -0.53231026     E(CORR)=     -184.24285080     Delta=-2.86D-02
 NORM(A)=   0.10861419D+01
 Iteration Nr.   3
 **********************
 DD1Dir will call FoFMem   1 times, MxPair=        72
 NAB=    36 NAA=     0 NBB=     0.
 Norm of the A-vectors is  1.0599288D-01 conv= 1.00D-05.
 RLE energy=       -0.5311525968
 DE(Corr)= -0.52815703     E(CORR)=     -184.23869758     Delta= 4.15D-03
 NORM(A)=   0.10891826D+01
 Iteration Nr.   4
 **********************
 DD1Dir will call FoFMem   1 times, MxPair=        72
 NAB=    36 NAA=     0 NBB=     0.
 Norm of the A-vectors is  4.4717809D-02 conv= 1.00D-05.
 RLE energy=       -0.5312761941
 DE(Corr)= -0.53100096     E(CORR)=     -184.24154150     Delta=-2.84D-03
 NORM(A)=   0.10900915D+01
 Iteration Nr.   5
 **********************
 DD1Dir will call FoFMem   1 times, MxPair=        72
 NAB=    36 NAA=     0 NBB=     0.
 Norm of the A-vectors is  1.1001548D-02 conv= 1.00D-05.
 RLE energy=       -0.5314278881
 DE(Corr)= -0.53138734     E(CORR)=     -184.24192789     Delta=-3.86D-04
 NORM(A)=   0.10904883D+01
 Iteration Nr.   6
 **********************
 DD1Dir will call FoFMem   1 times, MxPair=        72
 NAB=    36 NAA=     0 NBB=     0.
 Norm of the A-vectors is  4.1499291D-03 conv= 1.00D-05.
 RLE energy=       -0.5314568173
 DE(Corr)= -0.53142614     E(CORR)=     -184.24196668     Delta=-3.88D-05
 NORM(A)=   0.10905546D+01
 Iteration Nr.   7
 **********************
 DD1Dir will call FoFMem   1 times, MxPair=        72
 NAB=    36 NAA=     0 NBB=     0.
 Norm of the A-vectors is  1.2448450D-03 conv= 1.00D-05.
 RLE energy=       -0.5314171721
 DE(Corr)= -0.53142957     E(CORR)=     -184.24197012     Delta=-3.43D-06
 NORM(A)=   0.10905468D+01
 Iteration Nr.   8
 **********************
 DD1Dir will call FoFMem   1 times, MxPair=        72
 NAB=    36 NAA=     0 NBB=     0.
 Norm of the A-vectors is  4.4854676D-04 conv= 1.00D-05.
 RLE energy=       -0.5314299810
 DE(Corr)= -0.53143115     E(CORR)=     -184.24197169     Delta=-1.57D-06
 NORM(A)=   0.10905535D+01
 Iteration Nr.   9
 **********************
 DD1Dir will call FoFMem   1 times, MxPair=        72
 NAB=    36 NAA=     0 NBB=     0.
 Norm of the A-vectors is  1.6199300D-04 conv= 1.00D-05.
 RLE energy=       -0.5314281615
 DE(Corr)= -0.53142870     E(CORR)=     -184.24196925     Delta= 2.44D-06
 NORM(A)=   0.10905531D+01
 Iteration Nr.  10
 **********************
 DD1Dir will call FoFMem   1 times, MxPair=        72
 NAB=    36 NAA=     0 NBB=     0.
 Norm of the A-vectors is  5.9815263D-05 conv= 1.00D-05.
 RLE energy=       -0.5314293094
 DE(Corr)= -0.53142940     E(CORR)=     -184.24196995     Delta=-7.01D-07
 NORM(A)=   0.10905541D+01
 Iteration Nr.  11
 **********************
 DD1Dir will call FoFMem   1 times, MxPair=        72
 NAB=    36 NAA=     0 NBB=     0.
 Norm of the A-vectors is  2.2580090D-05 conv= 1.00D-05.
 RLE energy=       -0.5314294525
 DE(Corr)= -0.53142939     E(CORR)=     -184.24196993     Delta= 1.18D-08
 NORM(A)=   0.10905544D+01
 Iteration Nr.  12
 **********************
 DD1Dir will call FoFMem   1 times, MxPair=        72
 NAB=    36 NAA=     0 NBB=     0.
 Norm of the A-vectors is  8.3866413D-06 conv= 1.00D-05.
 RLE energy=       -0.5314294857
 DE(Corr)= -0.53142949     E(CORR)=     -184.24197003     Delta=-1.00D-07
 NORM(A)=   0.10905546D+01
 Iteration Nr.  13
 **********************
 DD1Dir will call FoFMem   1 times, MxPair=        72
 NAB=    36 NAA=     0 NBB=     0.
 Norm of the A-vectors is  3.8930836D-06 conv= 1.00D-05.
 RLE energy=       -0.5314295927
 DE(Corr)= -0.53142958     E(CORR)=     -184.24197012     Delta=-8.51D-08
 NORM(A)=   0.10905547D+01
 CI/CC converged in   13 iterations to DelEn=-8.51D-08 Conv= 1.00D-07 ErrA1= 3.89D-06 Conv= 1.00D-05
 T1 Diagnostic =     0.01983049
 Largest amplitude= 3.82D-02
 T4(AAA)= -0.73885643D-03
 T4(AAB)= -0.13781377D-01
 T5(AAA)=  0.78426230D-04
 T5(AAB)=  0.11183257D-02
 Time for triples=       14.40 seconds.
 T4(CCSD)= -0.29040466D-01
 T5(CCSD)=  0.23935038D-02
 CCSD(T)= -0.18426861708D+03
 Discarding MO integrals.
 Leave Link  913 at Thu Aug 31 18:54:35 2023, MaxMem= 17179869184 cpu:       195.2
 (Enter /opt/local/g09/l601.exe)
 Copying SCF densities to generalized density rwf, IOpCl= 0 IROHF=0.

 **********************************************************************

            Population analysis using the SCF density.

 **********************************************************************

 Orbital symmetries:
       Occupied  (SG) (SG) (SG) (SG) (SG) (SG) (PI) (PI) (SG) (PI)
                 (PI)
       Virtual   (SG) (SG) (PI) (PI) (PI) (PI) (SG) (PI) (PI) (SG)
                 (PI) (PI) (SG) (SG) (SG) (DLTA) (DLTA) (SG) (DLTA)
                 (DLTA) (SG) (PI) (PI) (PI) (PI) (SG) (SG) (PI)
                 (PI) (DLTA) (DLTA) (PI) (PI) (SG) (PI) (PI) (SG)
                 (SG) (PI) (PI) (DLTA) (DLTA) (PI) (PI) (SG) (DLTA)
                 (DLTA) (SG) (PI) (PI) (SG) (SG) (DLTA) (DLTA)
                 (SG) (PI) (PI) (SG)
 The electronic state is 1-SG.
 Alpha  occ. eigenvalues --  -20.66757 -15.85582 -15.71020  -1.62264  -1.43413
 Alpha  occ. eigenvalues --   -0.83563  -0.76562  -0.76562  -0.69936  -0.49329
 Alpha  occ. eigenvalues --   -0.49329
 Alpha virt. eigenvalues --    0.07992   0.10372   0.11838   0.11838   0.16848
 Alpha virt. eigenvalues --    0.16848   0.18216   0.21337   0.21337   0.26632
 Alpha virt. eigenvalues --    0.29316   0.29316   0.34301   0.35387   0.50092
 Alpha virt. eigenvalues --    0.55008   0.55008   0.67432   0.79929   0.79929
 Alpha virt. eigenvalues --    0.81163   0.86692   0.86692   0.91507   0.91507
 Alpha virt. eigenvalues --    0.99478   1.11216   1.13164   1.13164   1.17693
 Alpha virt. eigenvalues --    1.17693   1.24986   1.24986   1.34832   1.45772
 Alpha virt. eigenvalues --    1.45772   1.48859   1.78947   2.07320   2.07320
 Alpha virt. eigenvalues --    2.18906   2.18906   2.22605   2.22605   2.35784
 Alpha virt. eigenvalues --    2.58651   2.58651   2.98698   3.03585   3.03585
 Alpha virt. eigenvalues --    3.18158   3.46940   3.58631   3.58631   3.78548
 Alpha virt. eigenvalues --    3.97416   3.97416   4.46940
          Condensed to atoms (all electrons):
               1          2          3
     1  O    8.574183   0.126027  -0.104079
     2  N    0.126027   7.183261  -0.643719
     3  N   -0.104079  -0.643719   7.486098
 Mulliken charges:
               1
     1  O   -0.596132
     2  N    0.334431
     3  N    0.261701
 Sum of Mulliken charges =   0.00000
 Mulliken charges with hydrogens summed into heavy atoms:
               1
     1  O   -0.596132
     2  N    0.334431
     3  N    0.261701
 Electronic spatial extent (au):  <R**2>=            108.4072
 Charge=              0.0000 electrons
 Dipole moment (field-independent basis, Debye):
    X=              0.0000    Y=              0.0000    Z=             -0.6446  Tot=              0.6446
 Quadrupole moment (field-independent basis, Debye-Ang):
   XX=            -15.4959   YY=            -15.4959   ZZ=            -19.2823
   XY=              0.0000   XZ=              0.0000   YZ=              0.0000
 Traceless Quadrupole moment (field-independent basis, Debye-Ang):
   XX=              1.2621   YY=              1.2621   ZZ=             -2.5242
   XY=              0.0000   XZ=              0.0000   YZ=              0.0000
 Octapole moment (field-independent basis, Debye-Ang**2):
  XXX=              0.0000  YYY=              0.0000  ZZZ=              3.9613  XYY=              0.0000
  XXY=              0.0000  XXZ=              0.7881  XZZ=              0.0000  YZZ=              0.0000
  YYZ=              0.7881  XYZ=              0.0000
 Hexadecapole moment (field-independent basis, Debye-Ang**3):
 XXXX=            -12.5694 YYYY=            -12.5694 ZZZZ=           -104.9946 XXXY=              0.0000
 XXXZ=              0.0000 YYYX=              0.0000 YYYZ=              0.0000 ZZZX=              0.0000
 ZZZY=              0.0000 XXYY=             -4.1898 XXZZ=            -19.5793 YYZZ=            -19.5793
 XXYZ=              0.0000 YYXZ=              0.0000 ZZXY=              0.0000
 N-N= 6.101663281298D+01 E-N=-5.540612137731D+02  KE= 1.832931998581D+02
 Leave Link  601 at Thu Aug 31 18:54:35 2023, MaxMem= 17179869184 cpu:         3.2
 (Enter /opt/local/g09/l9999.exe)
 1\1\GINC-N216\SP\RCCSD(T)-FC\Aug-CC-pVDZ\N2O1\XIZK\31-Aug-2023\0\\#p C
 CSD(T,T1Diag)/aug-cc-pvdz geom=check guess=read\\Title Card Required\\
 0,1\O,0,1.1627571357,0.,0.\N,0,-0.0205290033,0.,0.\N,0,-1.1422281324,0
 .,0.\\Version=EM64L-G09RevD.01\State=1-SG\HF=-183.7105405\MP2=-184.254
 9642\MP3=-184.2299799\MP4D=-184.24976\MP4DQ=-184.2348379\MP4SDQ=-184.2
 46596\CCSD=-184.2419701\CCSD(T)=-184.2686171\RMSD=2.315e-09\PG=C*V [C*
 (N1N1O1)]\\@


 BLACK HOLES SUCK.
 Job cpu time:       0 days  0 hours  3 minutes 57.8 seconds.
 File lengths (MBytes):  RWF=    260 Int=      0 D2E=      0 Chk=      2 Scr=      1
 Normal termination of Gaussian 09 at Thu Aug 31 18:54:35 2023.
