 Entering Gaussian System, Link 0=g09
 Input=NH2_ccsdt_avdz.gjf
 Output=NH2_ccsdt_avdz.log
 Initial command:
 /opt/local/g09/l1.exe "/data/tmp/Gau-62464.inp" -scrdir="/data/tmp/"
 Entering Link 1 = /opt/local/g09/l1.exe PID=     62465.
  
 Copyright (c) 1988,1990,1992,1993,1995,1998,2003,2009,2013,
            Gaussian, Inc.  All Rights Reserved.
  
 This is part of the Gaussian(R) 09 program.  It is based on
 the Gaussian(R) 03 system (copyright 2003, Gaussian, Inc.),
 the Gaussian(R) 98 system (copyright 1998, Gaussian, Inc.),
 the Gaussian(R) 94 system (copyright 1995, Gaussian, Inc.),
 the Gaussian 92(TM) system (copyright 1992, Gaussian, Inc.),
 the Gaussian 90(TM) system (copyright 1990, Gaussian, Inc.),
 the Gaussian 88(TM) system (copyright 1988, Gaussian, Inc.),
 the Gaussian 86(TM) system (copyright 1986, Carnegie Mellon
 University), and the Gaussian 82(TM) system (copyright 1983,
 Carnegie Mellon University). Gaussian is a federally registered
 trademark of Gaussian, Inc.
  
 This software contains proprietary and confidential information,
 including trade secrets, belonging to Gaussian, Inc.
  
 This software is provided under written license and may be
 used, copied, transmitted, or stored only in accord with that
 written license.
  
 The following legend is applicable only to US Government
 contracts under FAR:
  
                    RESTRICTED RIGHTS LEGEND
  
 Use, reproduction and disclosure by the US Government is
 subject to restrictions as set forth in subparagraphs (a)
 and (c) of the Commercial Computer Software - Restricted
 Rights clause in FAR 52.227-19.
  
 Gaussian, Inc.
 340 Quinnipiac St., Bldg. 40, Wallingford CT 06492
  
  
 ---------------------------------------------------------------
 Warning -- This program may not be used in any manner that
 competes with the business of Gaussian, Inc. or will provide
 assistance to any competitor of Gaussian, Inc.  The licensee
 of this program is prohibited from giving any competitor of
 Gaussian, Inc. access to this program.  By using this program,
 the user acknowledges that Gaussian, Inc. is engaged in the
 business of creating and licensing software in the field of
 computational chemistry and represents and warrants to the
 licensee that it is not a competitor of Gaussian, Inc. and that
 it will not use this program in any manner prohibited above.
 ---------------------------------------------------------------
  

 Cite this work as:
 Gaussian 09, Revision D.01,
 M. J. Frisch, G. W. Trucks, H. B. Schlegel, G. E. Scuseria, 
 M. A. Robb, J. R. Cheeseman, G. Scalmani, V. Barone, B. Mennucci, 
 G. A. Petersson, H. Nakatsuji, M. Caricato, X. Li, H. P. Hratchian, 
 A. F. Izmaylov, J. Bloino, G. Zheng, J. L. Sonnenberg, M. Hada, 
 M. Ehara, K. Toyota, R. Fukuda, J. Hasegawa, M. Ishida, T. Nakajima, 
 Y. Honda, O. Kitao, H. Nakai, T. Vreven, J. A. Montgomery, Jr., 
 J. E. Peralta, F. Ogliaro, M. Bearpark, J. J. Heyd, E. Brothers, 
 K. N. Kudin, V. N. Staroverov, T. Keith, R. Kobayashi, J. Normand, 
 K. Raghavachari, A. Rendell, J. C. Burant, S. S. Iyengar, J. Tomasi, 
 M. Cossi, N. Rega, J. M. Millam, M. Klene, J. E. Knox, J. B. Cross, 
 V. Bakken, C. Adamo, J. Jaramillo, R. Gomperts, R. E. Stratmann, 
 O. Yazyev, A. J. Austin, R. Cammi, C. Pomelli, J. W. Ochterski, 
 R. L. Martin, K. Morokuma, V. G. Zakrzewski, G. A. Voth, 
 P. Salvador, J. J. Dannenberg, S. Dapprich, A. D. Daniels, 
 O. Farkas, J. B. Foresman, J. V. Ortiz, J. Cioslowski, 
 and D. J. Fox, Gaussian, Inc., Wallingford CT, 2013.
 
 ******************************************
 Gaussian 09:  EM64L-G09RevD.01 24-Apr-2013
                31-Aug-2023 
 ******************************************
 %nprocshared=32
 Will use up to   32 processors via shared memory.
 %mem=128GB
 %chk=NH2_ccsdt_avdz.chk
 ---------------------------------------------------
 #p CCSD(T,T1Diag)/aug-cc-pvdz geom=check guess=read
 ---------------------------------------------------
 1/29=2,38=1/1;
 2/12=2,40=1/2;
 3/5=16,7=10,11=9,14=-4,16=1,25=1,30=1,116=-2/1,2,3;
 4/5=1/1;
 5/5=2,38=6/2;
 8/6=4,9=120000,10=1/1,4;
 9/5=7,14=2,36=1/13;
 6/7=2,8=2,9=2,10=2/1;
 99/5=1,9=1/99;
 Leave Link    1 at Thu Aug 31 18:54:35 2023, MaxMem= 17179869184 cpu:         1.7
 (Enter /opt/local/g09/l101.exe)
 -------------------
 Title Card Required
 -------------------
 Structure from the checkpoint file:  "NH2_ccsdt_avdz.chk"
 Charge =  0 Multiplicity = 2
 Redundant internal coordinates found in file.
 N,0,2.5368961895,-0.2494968879,0.
 H,0,1.7341130228,0.3922708644,0.
 H,0,3.3397311086,0.3922061223,0.
 Recover connectivity data from disk.
 NAtoms=      3 NQM=        3 NQMF=       0 NMMI=      0 NMMIF=      0
                NMic=       0 NMicF=      0.
                    Isotopes and Nuclear Properties:
 (Nuclear quadrupole moments (NQMom) in fm**2, nuclear magnetic moments (NMagM)
  in nuclear magnetons)

  Atom         1           2           3
 IAtWgt=          14           1           1
 AtmWgt=  14.0030740   1.0078250   1.0078250
 NucSpn=           2           1           1
 AtZEff=  -4.5500000  -1.0000000  -1.0000000
 NQMom=    2.0440000   0.0000000   0.0000000
 NMagM=    0.4037610   2.7928460   2.7928460
 AtZNuc=   7.0000000   1.0000000   1.0000000
 Leave Link  101 at Thu Aug 31 18:54:36 2023, MaxMem= 17179869184 cpu:         3.2
 (Enter /opt/local/g09/l202.exe)
                          Input orientation:                          
 ---------------------------------------------------------------------
 Center     Atomic      Atomic             Coordinates (Angstroms)
 Number     Number       Type             X           Y           Z
 ---------------------------------------------------------------------
      1          7           0        2.536896   -0.249497    0.000000
      2          1           0        1.734113    0.392271    0.000000
      3          1           0        3.339731    0.392206    0.000000
 ---------------------------------------------------------------------
                    Distance matrix (angstroms):
                    1          2          3
     1  N    0.000000
     2  H    1.027778   0.000000
     3  H    1.027778   1.605618   0.000000
 Stoichiometry    H2N(2)
 Framework group  C2V[C2(N),SGV(H2)]
 Deg. of freedom     2
 Full point group                 C2V     NOp   4
 RotChk:  IX=0 Diff= 4.71D-16
 Largest Abelian subgroup         C2V     NOp   4
 Largest concise Abelian subgroup C2      NOp   2
                         Standard orientation:                         
 ---------------------------------------------------------------------
 Center     Atomic      Atomic             Coordinates (Angstroms)
 Number     Number       Type             X           Y           Z
 ---------------------------------------------------------------------
      1          7           0        0.000000    0.000000    0.142608
      2          1           0        0.000000    0.802809   -0.499128
      3          1           0        0.000000   -0.802809   -0.499128
 ---------------------------------------------------------------------
 Rotational constants (GHZ):    696.4575085    389.0250301    249.6027283
 Leave Link  202 at Thu Aug 31 18:54:36 2023, MaxMem= 17179869184 cpu:         1.7
 (Enter /opt/local/g09/l301.exe)
 Standard basis: Aug-CC-pVDZ (5D, 7F)
 Ernie: Thresh=  0.10000D-02 Tol=  0.10000D-05 Strict=F.
 Ernie:  2 primitive shells out of 39 were deleted.
 There are    20 symmetry adapted cartesian basis functions of A1  symmetry.
 There are     4 symmetry adapted cartesian basis functions of A2  symmetry.
 There are     7 symmetry adapted cartesian basis functions of B1  symmetry.
 There are    12 symmetry adapted cartesian basis functions of B2  symmetry.
 There are    18 symmetry adapted basis functions of A1  symmetry.
 There are     4 symmetry adapted basis functions of A2  symmetry.
 There are     7 symmetry adapted basis functions of B1  symmetry.
 There are    12 symmetry adapted basis functions of B2  symmetry.
    41 basis functions,    65 primitive gaussians,    43 cartesian basis functions
     5 alpha electrons        4 beta electrons
       nuclear repulsion energy         7.5378319168 Hartrees.
 IExCor=    0 DFT=F Ex=HF Corr=None ExCW=0 ScaHFX=  1.000000
 ScaDFX=  1.000000  1.000000  1.000000  1.000000 ScalE2=  1.000000  1.000000
 IRadAn=      0 IRanWt=     -1 IRanGd=            0 ICorTp=0 IEmpDi=  4
 NAtoms=    3 NActive=    3 NUniq=    2 SFac= 2.25D+00 NAtFMM=   60 NAOKFM=F Big=F
 Integral buffers will be    131072 words long.
 Raffenetti 2 integral format.
 Two-electron integral symmetry is turned on.
 Leave Link  301 at Thu Aug 31 18:54:36 2023, MaxMem= 17179869184 cpu:         0.6
 (Enter /opt/local/g09/l302.exe)
 NPDir=0 NMtPBC=     1 NCelOv=     1 NCel=       1 NClECP=     1 NCelD=      1
         NCelK=      1 NCelE2=     1 NClLst=     1 CellRange=     0.0.
 One-electron integrals computed using PRISM.
 One-electron integral symmetry used in STVInt
 NBasis=    41 RedAO= T EigKep=  2.58D-03  NBF=    18     4     7    12
 NBsUse=    41 1.00D-06 EigRej= -1.00D+00 NBFU=    18     4     7    12
 Leave Link  302 at Thu Aug 31 18:54:36 2023, MaxMem= 17179869184 cpu:         5.9
 (Enter /opt/local/g09/l303.exe)
 DipDrv:  MaxL=1.
 Leave Link  303 at Thu Aug 31 18:54:36 2023, MaxMem= 17179869184 cpu:         2.6
 (Enter /opt/local/g09/l401.exe)
 Initial guess from the checkpoint file:  "NH2_ccsdt_avdz.chk"
 B after Tr=     0.000000    0.000000    0.000000
         Rot=    1.000000    0.000000    0.000000    0.000000 Ang=   0.00 deg.
 Guess basis will be translated and rotated to current coordinates.
 JPrj=2 DoOrth=T DoCkMO=T.
 Initial guess orbital symmetries:
 Alpha Orbitals:
       Occupied  (A1) (A1) (B2) (A1) (B1)
       Virtual   (A1) (B2) (B2) (A1) (A1) (B1) (B2) (A1) (A1) (A2)
                 (B1) (B2) (B2) (A1) (B1) (A2) (A1) (B2) (A1) (A1)
                 (B2) (B1) (B1) (A1) (A2) (A1) (B2) (B2) (B2) (B1)
                 (A2) (A1) (A1) (A1) (A1) (B2)
 Beta  Orbitals:
       Occupied  (A1) (A1) (B2) (A1)
       Virtual   (B1) (A1) (B2) (B2) (A1) (A1) (B1) (B2) (A1) (A2)
                 (A1) (B1) (B2) (B2) (A1) (B1) (A2) (A1) (B2) (A1)
                 (A1) (B2) (B1) (B1) (A1) (A2) (A1) (B2) (B2) (B2)
                 (B1) (A2) (A1) (A1) (A1) (A1) (B2)
 The electronic state of the initial guess is 2-B1.
 Initial guess <Sx>= 0.0000 <Sy>= 0.0000 <Sz>= 0.5000 <S**2>= 0.7529 S= 0.5014
 Leave Link  401 at Thu Aug 31 18:54:36 2023, MaxMem= 17179869184 cpu:         5.2
 (Enter /opt/local/g09/l502.exe)
 UHF open shell SCF:
 Using DIIS extrapolation, IDIIS=  1040.
 Integral symmetry usage will be decided dynamically.
 Keep R1 and R2 ints in memory in symmetry-blocked form, NReq=1236655.
 IVT=       25907 IEndB=       25907 NGot= 17179869184 MDV= 17179643031
 LenX= 17179643031 LenY= 17179640741
 Requested convergence on RMS density matrix=1.00D-08 within 128 cycles.
 Requested convergence on MAX density matrix=1.00D-06.
 Requested convergence on             energy=1.00D-06.
 No special actions if energy rises.
 FoFCou: FMM=F IPFlag=           0 FMFlag=           0 FMFlg1=           0
         NFxFlg=           0 DoJE=F BraDBF=F KetDBF=F FulRan=T
         wScrn=  0.000000 ICntrl=     600 IOpCl=  0 I1Cent=           0 NGrid=           0
         NMat0=    1 NMatS0=    861 NMatT0=    0 NMatD0=    1 NMtDS0=    0 NMtDT0=    0
 Petite list used in FoFCou.

 Cycle   1  Pass 1  IDiag  1:
 E= -55.5698059427969    
 DIIS: error= 1.53D-02 at cycle   1 NSaved=   1.
 NSaved= 1 IEnMin= 1 EnMin= -55.5698059427969     IErMin= 1 ErrMin= 1.53D-02
 ErrMax= 1.53D-02  0.00D+00 EMaxC= 1.00D-01 BMatC= 3.40D-02 BMatP= 3.40D-02
 IDIUse=3 WtCom= 8.47D-01 WtEn= 1.53D-01
 Coeff-Com:  0.100D+01
 Coeff-En:   0.100D+01
 Coeff:      0.100D+01
 Gap=     0.648 Goal=   None    Shift=    0.000
 Gap=     0.597 Goal=   None    Shift=    0.000
 GapD=    0.597 DampG=2.000 DampE=0.500 DampFc=1.0000 IDamp=-1.
 RMSDP=2.94D-03 MaxDP=2.66D-02              OVMax= 2.65D-02

 Cycle   2  Pass 1  IDiag  1:
 E= -55.5745660539078     Delta-E=       -0.004760111111 Rises=F Damp=F
 DIIS: error= 2.96D-03 at cycle   2 NSaved=   2.
 NSaved= 2 IEnMin= 2 EnMin= -55.5745660539078     IErMin= 2 ErrMin= 2.96D-03
 ErrMax= 2.96D-03  0.00D+00 EMaxC= 1.00D-01 BMatC= 8.28D-04 BMatP= 3.40D-02
 IDIUse=3 WtCom= 9.70D-01 WtEn= 2.96D-02
 Coeff-Com: -0.941D-01 0.109D+01
 Coeff-En:   0.000D+00 0.100D+01
 Coeff:     -0.914D-01 0.109D+01
 Gap=     0.545 Goal=   None    Shift=    0.000
 Gap=     0.505 Goal=   None    Shift=    0.000
 RMSDP=5.78D-04 MaxDP=6.14D-03 DE=-4.76D-03 OVMax= 9.41D-03

 Cycle   3  Pass 1  IDiag  1:
 E= -55.5748762002225     Delta-E=       -0.000310146315 Rises=F Damp=F
 DIIS: error= 1.11D-03 at cycle   3 NSaved=   3.
 NSaved= 3 IEnMin= 3 EnMin= -55.5748762002225     IErMin= 3 ErrMin= 1.11D-03
 ErrMax= 1.11D-03  0.00D+00 EMaxC= 1.00D-01 BMatC= 1.01D-04 BMatP= 8.28D-04
 IDIUse=3 WtCom= 9.89D-01 WtEn= 1.11D-02
 Coeff-Com: -0.234D-01 0.135D+00 0.889D+00
 Coeff-En:   0.000D+00 0.000D+00 0.100D+01
 Coeff:     -0.232D-01 0.133D+00 0.890D+00
 Gap=     0.542 Goal=   None    Shift=    0.000
 Gap=     0.500 Goal=   None    Shift=    0.000
 RMSDP=1.28D-04 MaxDP=1.98D-03 DE=-3.10D-04 OVMax= 3.56D-03

 Cycle   4  Pass 1  IDiag  1:
 E= -55.5749157983290     Delta-E=       -0.000039598106 Rises=F Damp=F
 DIIS: error= 5.63D-04 at cycle   4 NSaved=   4.
 NSaved= 4 IEnMin= 4 EnMin= -55.5749157983290     IErMin= 4 ErrMin= 5.63D-04
 ErrMax= 5.63D-04  0.00D+00 EMaxC= 1.00D-01 BMatC= 2.09D-05 BMatP= 1.01D-04
 IDIUse=3 WtCom= 9.94D-01 WtEn= 5.63D-03
 Coeff-Com:  0.138D-01-0.159D+00-0.655D-01 0.121D+01
 Coeff-En:   0.000D+00 0.000D+00 0.000D+00 0.100D+01
 Coeff:      0.137D-01-0.158D+00-0.652D-01 0.121D+01
 Gap=     0.543 Goal=   None    Shift=    0.000
 Gap=     0.501 Goal=   None    Shift=    0.000
 RMSDP=8.65D-05 MaxDP=1.27D-03 DE=-3.96D-05 OVMax= 1.98D-03

 Cycle   5  Pass 1  IDiag  1:
 E= -55.5749305392082     Delta-E=       -0.000014740879 Rises=F Damp=F
 DIIS: error= 2.46D-04 at cycle   5 NSaved=   5.
 NSaved= 5 IEnMin= 5 EnMin= -55.5749305392082     IErMin= 5 ErrMin= 2.46D-04
 ErrMax= 2.46D-04  0.00D+00 EMaxC= 1.00D-01 BMatC= 4.66D-06 BMatP= 2.09D-05
 IDIUse=3 WtCom= 9.98D-01 WtEn= 2.46D-03
 Coeff-Com: -0.872D-02 0.127D+00-0.664D-01-0.114D+01 0.209D+01
 Coeff-En:   0.000D+00 0.000D+00 0.000D+00 0.000D+00 0.100D+01
 Coeff:     -0.870D-02 0.127D+00-0.663D-01-0.114D+01 0.208D+01
 Gap=     0.543 Goal=   None    Shift=    0.000
 Gap=     0.500 Goal=   None    Shift=    0.000
 RMSDP=6.96D-05 MaxDP=1.01D-03 DE=-1.47D-05 OVMax= 1.52D-03

 Cycle   6  Pass 1  IDiag  1:
 E= -55.5749357516833     Delta-E=       -0.000005212475 Rises=F Damp=F
 DIIS: error= 7.35D-05 at cycle   6 NSaved=   6.
 NSaved= 6 IEnMin= 6 EnMin= -55.5749357516833     IErMin= 6 ErrMin= 7.35D-05
 ErrMax= 7.35D-05  0.00D+00 EMaxC= 1.00D-01 BMatC= 3.89D-07 BMatP= 4.66D-06
 IDIUse=1 WtCom= 1.00D+00 WtEn= 0.00D+00
 Coeff-Com:  0.428D-02-0.674D-01 0.494D-01 0.634D+00-0.144D+01 0.182D+01
 Coeff:      0.428D-02-0.674D-01 0.494D-01 0.634D+00-0.144D+01 0.182D+01
 Gap=     0.543 Goal=   None    Shift=    0.000
 Gap=     0.500 Goal=   None    Shift=    0.000
 RMSDP=2.64D-05 MaxDP=3.77D-04 DE=-5.21D-06 OVMax= 6.11D-04

 Cycle   7  Pass 1  IDiag  1:
 E= -55.5749362731207     Delta-E=       -0.000000521437 Rises=F Damp=F
 DIIS: error= 1.86D-05 at cycle   7 NSaved=   7.
 NSaved= 7 IEnMin= 7 EnMin= -55.5749362731207     IErMin= 7 ErrMin= 1.86D-05
 ErrMax= 1.86D-05  0.00D+00 EMaxC= 1.00D-01 BMatC= 1.99D-08 BMatP= 3.89D-07
 IDIUse=1 WtCom= 1.00D+00 WtEn= 0.00D+00
 Coeff-Com: -0.117D-02 0.195D-01-0.147D-01-0.197D+00 0.472D+00-0.779D+00
 Coeff-Com:  0.150D+01
 Coeff:     -0.117D-02 0.195D-01-0.147D-01-0.197D+00 0.472D+00-0.779D+00
 Coeff:      0.150D+01
 Gap=     0.543 Goal=   None    Shift=    0.000
 Gap=     0.500 Goal=   None    Shift=    0.000
 RMSDP=5.56D-06 MaxDP=7.34D-05 DE=-5.21D-07 OVMax= 1.80D-04

 Cycle   8  Pass 1  IDiag  1:
 E= -55.5749362964888     Delta-E=       -0.000000023368 Rises=F Damp=F
 DIIS: error= 4.13D-06 at cycle   8 NSaved=   8.
 NSaved= 8 IEnMin= 8 EnMin= -55.5749362964888     IErMin= 8 ErrMin= 4.13D-06
 ErrMax= 4.13D-06  0.00D+00 EMaxC= 1.00D-01 BMatC= 1.74D-09 BMatP= 1.99D-08
 IDIUse=1 WtCom= 1.00D+00 WtEn= 0.00D+00
 Coeff-Com:  0.145D-03-0.283D-02 0.264D-02 0.322D-01-0.876D-01 0.194D+00
 Coeff-Com: -0.627D+00 0.149D+01
 Coeff:      0.145D-03-0.283D-02 0.264D-02 0.322D-01-0.876D-01 0.194D+00
 Coeff:     -0.627D+00 0.149D+01
 Gap=     0.543 Goal=   None    Shift=    0.000
 Gap=     0.500 Goal=   None    Shift=    0.000
 RMSDP=1.37D-06 MaxDP=1.93D-05 DE=-2.34D-08 OVMax= 3.98D-05

 Cycle   9  Pass 1  IDiag  1:
 E= -55.5749362981541     Delta-E=       -0.000000001665 Rises=F Damp=F
 DIIS: error= 1.01D-06 at cycle   9 NSaved=   9.
 NSaved= 9 IEnMin= 9 EnMin= -55.5749362981541     IErMin= 9 ErrMin= 1.01D-06
 ErrMax= 1.01D-06  0.00D+00 EMaxC= 1.00D-01 BMatC= 1.29D-10 BMatP= 1.74D-09
 IDIUse=1 WtCom= 1.00D+00 WtEn= 0.00D+00
 Coeff-Com:  0.660D-04-0.101D-02 0.524D-03 0.976D-02-0.203D-01 0.205D-01
 Coeff-Com:  0.328D-01-0.460D+00 0.142D+01
 Coeff:      0.660D-04-0.101D-02 0.524D-03 0.976D-02-0.203D-01 0.205D-01
 Coeff:      0.328D-01-0.460D+00 0.142D+01
 Gap=     0.543 Goal=   None    Shift=    0.000
 Gap=     0.500 Goal=   None    Shift=    0.000
 RMSDP=4.30D-07 MaxDP=6.07D-06 DE=-1.67D-09 OVMax= 1.14D-05

 Cycle  10  Pass 1  IDiag  1:
 E= -55.5749362982706     Delta-E=       -0.000000000117 Rises=F Damp=F
 DIIS: error= 2.34D-07 at cycle  10 NSaved=  10.
 NSaved=10 IEnMin=10 EnMin= -55.5749362982706     IErMin=10 ErrMin= 2.34D-07
 ErrMax= 2.34D-07  0.00D+00 EMaxC= 1.00D-01 BMatC= 2.55D-12 BMatP= 1.29D-10
 IDIUse=1 WtCom= 1.00D+00 WtEn= 0.00D+00
 Coeff-Com: -0.307D-04 0.489D-03-0.304D-03-0.477D-02 0.104D-01-0.133D-01
 Coeff-Com:  0.425D-02 0.137D+00-0.542D+00 0.141D+01
 Coeff:     -0.307D-04 0.489D-03-0.304D-03-0.477D-02 0.104D-01-0.133D-01
 Coeff:      0.425D-02 0.137D+00-0.542D+00 0.141D+01
 Gap=     0.543 Goal=   None    Shift=    0.000
 Gap=     0.500 Goal=   None    Shift=    0.000
 RMSDP=6.14D-08 MaxDP=9.73D-07 DE=-1.17D-10 OVMax= 1.61D-06

 Cycle  11  Pass 1  IDiag  1:
 E= -55.5749362982727     Delta-E=       -0.000000000002 Rises=F Damp=F
 DIIS: error= 4.36D-08 at cycle  11 NSaved=  11.
 NSaved=11 IEnMin=11 EnMin= -55.5749362982727     IErMin=11 ErrMin= 4.36D-08
 ErrMax= 4.36D-08  0.00D+00 EMaxC= 1.00D-01 BMatC= 1.11D-13 BMatP= 2.55D-12
 IDIUse=1 WtCom= 1.00D+00 WtEn= 0.00D+00
 Coeff-Com:  0.865D-05-0.139D-03 0.847D-04 0.137D-02-0.304D-02 0.411D-02
 Coeff-Com: -0.329D-02-0.326D-01 0.148D+00-0.534D+00 0.142D+01
 Coeff:      0.865D-05-0.139D-03 0.847D-04 0.137D-02-0.304D-02 0.411D-02
 Coeff:     -0.329D-02-0.326D-01 0.148D+00-0.534D+00 0.142D+01
 Gap=     0.543 Goal=   None    Shift=    0.000
 Gap=     0.500 Goal=   None    Shift=    0.000
 RMSDP=8.98D-09 MaxDP=1.61D-07 DE=-2.14D-12 OVMax= 2.61D-07

 SCF Done:  E(UHF) =  -55.5749362983     A.U. after   11 cycles
            NFock= 11  Conv=0.90D-08     -V/T= 2.0021
 <Sx>= 0.0000 <Sy>= 0.0000 <Sz>= 0.5000 <S**2>= 0.7592 S= 0.5046
 <L.S>= 0.000000000000E+00
 KE= 5.546068111575D+01 PE=-1.455400667214D+02 EE= 2.696661739059D+01
 Annihilation of the first spin contaminant:
 S**2 before annihilation     0.7592,   after     0.7500
 Leave Link  502 at Thu Aug 31 18:54:37 2023, MaxMem= 17179869184 cpu:         6.4
 (Enter /opt/local/g09/l801.exe)
 Windowed orbitals will be sorted by symmetry type.
 ExpMin= 2.97D-02 ExpMax= 9.05D+03 ExpMxC= 3.09D+02 IAcc=3 IRadAn=         5 AccDes= 0.00D+00
 HarFok:  IExCor=  205 AccDes= 0.00D+00 IRadAn=         5 IDoV=-2 UseB2=F ITyADJ=14
 ICtDFT= 12500011 ScaDFX=  1.000000  1.000000  1.000000  1.000000
 Largest valence mixing into a core orbital is  8.90D-05
 Largest core mixing into a valence orbital is  2.63D-05
 Largest valence mixing into a core orbital is  1.34D-04
 Largest core mixing into a valence orbital is  4.29D-05
 Range of M.O.s used for correlation:     2    41
 NBasis=    41 NAE=     5 NBE=     4 NFC=     1 NFV=     0
 NROrb=     40 NOA=     4 NOB=     3 NVA=    36 NVB=    37
 Leave Link  801 at Thu Aug 31 18:54:37 2023, MaxMem= 17179869184 cpu:         1.0
 (Enter /opt/local/g09/l804.exe)
 Open-shell transformation, MDV= 17179869184 ITran=4 ISComp=2.
 Semi-Direct transformation.
 ModeAB=           4 MOrb=             4 LenV=   17179669891
 LASXX=        30213 LTotXX=       30213 LenRXX=       63640
 LTotAB=       33427 MaxLAS=      110560 LenRXY=           0
 NonZer=       93853 LenScr=      785920 LnRSAI=      110560
 LnScr1=      785920 LExtra=           0 Total=      1746040
 MaxDsk=          -1 SrtSym=           T ITran=            4
 DoSDTr:  NPSUse= 32
 JobTyp=1 Pass  1:  I=   1 to   4.
 (rs|ai) integrals will be sorted in core.
 Complete sort for first half transformation.
 First half transformation complete.
 Complete sort for second half transformation.
 Second half transformation complete.
 ModeAB=           4 MOrb=             3 LenV=   17179669891
 LASXX=        23836 LTotXX=       23836 LenRXX=       45274
 LTotAB=       21438 MaxLAS=       82920 LenRXY=           0
 NonZer=       69110 LenScr=      785920 LnRSAI=       82920
 LnScr1=      785920 LExtra=           0 Total=      1700034
 MaxDsk=          -1 SrtSym=           T ITran=            4
 DoSDTr:  NPSUse= 32
 JobTyp=2 Pass  1:  I=   1 to   3.
 (rs|ai) integrals will be sorted in core.
 Complete sort for first half transformation.
 First half transformation complete.
 Complete sort for second half transformation.
 Second half transformation complete.
 Spin components of T(2) and E(2):
     alpha-alpha T2 =       0.7683550526D-02 E2=     -0.2413854194D-01
     alpha-beta  T2 =       0.3687296963D-01 E2=     -0.1188762370D+00
     beta-beta   T2 =       0.3451101661D-02 E2=     -0.1049569522D-01
 ANorm=    0.1023722434D+01
 E2 =    -0.1535104742D+00 EUMP2 =    -0.55728446772471D+02
 (S**2,0)=  0.75921D+00           (S**2,1)=  0.75225D+00
 E(PUHF)=      -0.55577989081D+02        E(PMP2)=      -0.55730349909D+02
 Leave Link  804 at Thu Aug 31 18:54:37 2023, MaxMem= 17179869184 cpu:         6.0
 (Enter /opt/local/g09/l913.exe)
 CIDS:  MDV= 17179869184.
 Frozen-core window:  NFC=   1 NFV=   0.
 IFCWin=0 IBDFC=1 NFBD=     0     0 NFCmp=     0     0 NFFFC=     0     0
 Using original routines for 1st iteration, S=T.
 Using DD4UQ or CC4UQ for 2nd and later iterations.
 Keep R2 and R3 ints in memory in symmetry-blocked form, NReq=1195296.
 FoFCou: FMM=F IPFlag=           0 FMFlag=           0 FMFlg1=           0
         NFxFlg=           0 DoJE=F BraDBF=F KetDBF=F FulRan=T
         wScrn=  0.000000 ICntrl=     600 IOpCl=  0 I1Cent=           0 NGrid=           0
         NMat0=    1 NMatS0=    861 NMatT0=    0 NMatD0=    1 NMtDS0=    0 NMtDT0=    0
 Petite list used in FoFCou.
 CCSD(T)
 =======
 Iterations=  50 Convergence= 0.100D-06
 Iteration Nr.   1
 **********************
 DD1Dir will call FoFMem   1 times, MxPair=        34
 NAB=    12 NAA=     6 NBB=     3.
 E(PMP3)=      -0.55745873811D+02
 MP4(R+Q)=  0.25508068D-02
 Maximum subspace dimension=  5
 Norm of the A-vectors is  1.3662414D-01 conv= 1.00D-05.
 RLE energy=       -0.1685992099
 E3=       -0.16295258D-01        EUMP3=      -0.55744742031D+02
 E4(DQ)=   -0.14529752D-02        UMP4(DQ)=   -0.55746195006D+02
 E4(SDQ)=  -0.23359760D-02        UMP4(SDQ)=  -0.55747078007D+02
 VARIATIONAL ENERGIES WITH THE FIRST-ORDER WAVEFUNCTION:
 DE(Corr)= -0.16724885     E(Corr)=     -55.742185147    
 NORM(A)=   0.10293038D+01
 Iteration Nr.   2
 **********************
 DD1Dir will call FoFMem   1 times, MxPair=        34
 NAB=    12 NAA=     6 NBB=     3.
 Norm of the A-vectors is  4.7926848D-02 conv= 1.00D-05.
 RLE energy=       -0.1724990157
 DE(Corr)= -0.17134930     E(CORR)=     -55.746285598     Delta=-4.10D-03
 NORM(A)=   0.10316873D+01
 Iteration Nr.   3
 **********************
 DD1Dir will call FoFMem   1 times, MxPair=        34
 NAB=    12 NAA=     6 NBB=     3.
 Norm of the A-vectors is  1.5343147D-02 conv= 1.00D-05.
 RLE energy=       -0.1728775635
 DE(Corr)= -0.17252309     E(CORR)=     -55.747459389     Delta=-1.17D-03
 NORM(A)=   0.10323053D+01
 Iteration Nr.   4
 **********************
 DD1Dir will call FoFMem   1 times, MxPair=        34
 NAB=    12 NAA=     6 NBB=     3.
 Norm of the A-vectors is  5.9119431D-03 conv= 1.00D-05.
 RLE energy=       -0.1729648319
 DE(Corr)= -0.17290137     E(CORR)=     -55.747837665     Delta=-3.78D-04
 NORM(A)=   0.10324942D+01
 Iteration Nr.   5
 **********************
 DD1Dir will call FoFMem   1 times, MxPair=        34
 NAB=    12 NAA=     6 NBB=     3.
 Norm of the A-vectors is  2.3536251D-03 conv= 1.00D-05.
 RLE energy=       -0.1729647405
 DE(Corr)= -0.17295612     E(CORR)=     -55.747892414     Delta=-5.47D-05
 NORM(A)=   0.10325243D+01
 Iteration Nr.   6
 **********************
 DD1Dir will call FoFMem   1 times, MxPair=        34
 NAB=    12 NAA=     6 NBB=     3.
 Norm of the A-vectors is  8.4215470D-04 conv= 1.00D-05.
 RLE energy=       -0.1729609447
 DE(Corr)= -0.17296393     E(CORR)=     -55.747900226     Delta=-7.81D-06
 NORM(A)=   0.10325247D+01
 Iteration Nr.   7
 **********************
 DD1Dir will call FoFMem   1 times, MxPair=        34
 NAB=    12 NAA=     6 NBB=     3.
 Norm of the A-vectors is  3.0237564D-04 conv= 1.00D-05.
 RLE energy=       -0.1729653199
 DE(Corr)= -0.17296463     E(CORR)=     -55.747900931     Delta=-7.06D-07
 NORM(A)=   0.10325256D+01
 Iteration Nr.   8
 **********************
 DD1Dir will call FoFMem   1 times, MxPair=        34
 NAB=    12 NAA=     6 NBB=     3.
 Norm of the A-vectors is  1.1993614D-04 conv= 1.00D-05.
 RLE energy=       -0.1729645321
 DE(Corr)= -0.17296465     E(CORR)=     -55.747900953     Delta=-2.13D-08
 NORM(A)=   0.10325252D+01
 Iteration Nr.   9
 **********************
 DD1Dir will call FoFMem   1 times, MxPair=        34
 NAB=    12 NAA=     6 NBB=     3.
 Norm of the A-vectors is  5.2010442D-05 conv= 1.00D-05.
 RLE energy=       -0.1729651613
 DE(Corr)= -0.17296500     E(CORR)=     -55.747901300     Delta=-3.48D-07
 NORM(A)=   0.10325256D+01
 Iteration Nr.  10
 **********************
 DD1Dir will call FoFMem   1 times, MxPair=        34
 NAB=    12 NAA=     6 NBB=     3.
 Norm of the A-vectors is  2.2609533D-05 conv= 1.00D-05.
 RLE energy=       -0.1729651034
 DE(Corr)= -0.17296506     E(CORR)=     -55.747901355     Delta=-5.47D-08
 NORM(A)=   0.10325257D+01
 Iteration Nr.  11
 **********************
 DD1Dir will call FoFMem   1 times, MxPair=        34
 NAB=    12 NAA=     6 NBB=     3.
 Norm of the A-vectors is  1.0633367D-05 conv= 1.00D-05.
 RLE energy=       -0.1729651837
 DE(Corr)= -0.17296516     E(CORR)=     -55.747901455     Delta=-1.00D-07
 NORM(A)=   0.10325258D+01
 Iteration Nr.  12
 **********************
 DD1Dir will call FoFMem   1 times, MxPair=        34
 NAB=    12 NAA=     6 NBB=     3.
 Norm of the A-vectors is  4.9749280D-06 conv= 1.00D-05.
 RLE energy=       -0.1729651873
 DE(Corr)= -0.17296517     E(CORR)=     -55.747901472     Delta=-1.66D-08
 NORM(A)=   0.10325258D+01
 CI/CC converged in   12 iterations to DelEn=-1.66D-08 Conv= 1.00D-07 ErrA1= 4.97D-06 Conv= 1.00D-05
 T1 Diagnostic =     0.01120574
 Largest amplitude= 2.86D-02
 Time for triples=       15.71 seconds.
 T4(CCSD)= -0.40778129D-02
 T5(CCSD)=  0.15070259D-03
 CCSD(T)= -0.55751828582D+02

 S**2, projected HF & approx projected MPn energies after annihilation of
 unwanted spin states (see manual for definitions):

 spins       (S**2,0) (S**2,1)    PUHF        PMP2        PMP3        PMP4
 annihilated
 s+1         0.74997  0.75001  -55.577989  -55.730350  -55.745874
 s+1,s+2     0.75000  0.75000  -55.577983  -55.730343  -55.745868
 s+1 to s+3  0.75000  0.75000  -55.577983  -55.730343  -55.745868

 Discarding MO integrals.
 Leave Link  913 at Thu Aug 31 18:54:38 2023, MaxMem= 17179869184 cpu:        35.1
 (Enter /opt/local/g09/l601.exe)
 Copying SCF densities to generalized density rwf, IOpCl= 1 IROHF=0.

 **********************************************************************

            Population analysis using the SCF density.

 **********************************************************************

 Orbital symmetries:
 Alpha Orbitals:
       Occupied  (A1) (A1) (B2) (B1) (A1)
       Virtual   (A1) (B2) (B1) (A1) (A1) (B2) (B2) (A1) (A2) (A1)
                 (B1) (B2) (A1) (B2) (B2) (A1) (B1) (A2) (A1) (A1)
                 (B2) (B1) (A1) (B2) (A2) (B1) (A1) (B2) (A1) (B2)
                 (A1) (B1) (A2) (A1) (A1) (B2)
 Beta  Orbitals:
       Occupied  (A1) (A1) (B2) (A1)
       Virtual   (A1) (B2) (B1) (A1) (A1) (B2) (B1) (B2) (A1) (A2)
                 (A1) (B1) (B2) (A1) (B2) (B2) (A1) (B1) (A1) (A2)
                 (A1) (B2) (A1) (B1) (B2) (A2) (B1) (A1) (B2) (A1)
                 (B2) (A1) (B1) (A2) (A1) (A1) (B2)
 The electronic state is 2-B1.
 Alpha  occ. eigenvalues --  -15.60757  -1.16662  -0.64508  -0.51453  -0.50854
 Alpha virt. eigenvalues --    0.03480   0.05808   0.15325   0.15399   0.19805
 Alpha virt. eigenvalues --    0.20525   0.28432   0.30853   0.36598   0.37171
 Alpha virt. eigenvalues --    0.40121   0.52793   0.59380   0.61404   0.69527
 Alpha virt. eigenvalues --    0.72308   0.78961   0.85825   0.87080   1.11076
 Alpha virt. eigenvalues --    1.19760   1.19774   1.28378   1.81585   1.82953
 Alpha virt. eigenvalues --    1.94054   2.06503   2.14204   2.25809   2.35439
 Alpha virt. eigenvalues --    2.40826   2.63497   2.70165   2.81868   3.15181
 Alpha virt. eigenvalues --    3.47290
  Beta  occ. eigenvalues --  -15.57552  -1.04474  -0.62024  -0.46332
  Beta virt. eigenvalues --    0.03645   0.05862   0.07131   0.15700   0.20570
  Beta virt. eigenvalues --    0.20583   0.22726   0.28903   0.31312   0.37432
  Beta virt. eigenvalues --    0.37843   0.43977   0.52783   0.60980   0.61970
  Beta virt. eigenvalues --    0.69753   0.76756   0.83172   0.87341   0.89116
  Beta virt. eigenvalues --    1.11817   1.20719   1.30395   1.33308   1.81965
  Beta virt. eigenvalues --    1.84528   1.95861   2.07140   2.14461   2.29262
  Beta virt. eigenvalues --    2.36646   2.47185   2.70980   2.77481   2.83630
  Beta virt. eigenvalues --    3.18258   3.48524
          Condensed to atoms (all electrons):
               1          2          3
     1  N    6.523865   0.316319   0.316319
     2  H    0.316319   0.661232  -0.055802
     3  H    0.316319  -0.055802   0.661232
          Atomic-Atomic Spin Densities.
               1          2          3
     1  N    1.149186   0.002745   0.002745
     2  H    0.002745  -0.086938   0.006856
     3  H    0.002745   0.006856  -0.086938
 Mulliken charges and spin densities:
               1          2
     1  N   -0.156503   1.154675
     2  H    0.078251  -0.077337
     3  H    0.078251  -0.077337
 Sum of Mulliken charges =   0.00000   1.00000
 Mulliken charges and spin densities with hydrogens summed into heavy atoms:
               1          2
     1  N    0.000000   1.000000
 Electronic spatial extent (au):  <R**2>=             22.0049
 Charge=              0.0000 electrons
 Dipole moment (field-independent basis, Debye):
    X=              0.0000    Y=              0.0000    Z=             -1.9017  Tot=              1.9017
 Quadrupole moment (field-independent basis, Debye-Ang):
   XX=             -7.1280   YY=             -5.5354   ZZ=             -7.6657
   XY=              0.0000   XZ=              0.0000   YZ=              0.0000
 Traceless Quadrupole moment (field-independent basis, Debye-Ang):
   XX=             -0.3516   YY=              1.2410   ZZ=             -0.8893
   XY=              0.0000   XZ=              0.0000   YZ=              0.0000
 Octapole moment (field-independent basis, Debye-Ang**2):
  XXX=              0.0000  YYY=              0.0000  ZZZ=             -1.8825  XYY=              0.0000
  XXY=              0.0000  XXZ=             -0.4499  XZZ=              0.0000  YZZ=              0.0000
  YYZ=             -1.4030  XYZ=              0.0000
 Hexadecapole moment (field-independent basis, Debye-Ang**3):
 XXXX=             -6.6392 YYYY=             -9.3254 ZZZZ=            -11.4725 XXXY=              0.0000
 XXXZ=              0.0000 YYYX=              0.0000 YYYZ=              0.0000 ZZZX=              0.0000
 ZZZY=              0.0000 XXYY=             -2.9366 XXZZ=             -3.0413 YYZZ=             -3.1508
 XXYZ=              0.0000 YYXZ=              0.0000 ZZXY=              0.0000
 N-N= 7.537831916817D+00 E-N=-1.455400667115D+02  KE= 5.546068111575D+01
 Symmetry A1   KE= 5.112406277584D+01
 Symmetry A2   KE= 1.051919721203D-34
 Symmetry B1   KE= 1.722253287563D+00
 Symmetry B2   KE= 2.614365052349D+00
 Leave Link  601 at Thu Aug 31 18:54:39 2023, MaxMem= 17179869184 cpu:         3.8
 (Enter /opt/local/g09/l9999.exe)
 1\1\GINC-N216\SP\UCCSD(T)-FC\Aug-CC-pVDZ\H2N1(2)\XIZK\31-Aug-2023\0\\#
 p CCSD(T,T1Diag)/aug-cc-pvdz geom=check guess=read\\Title Card Require
 d\\0,2\N,0,2.5368961895,-0.2494968879,0.\H,0,1.7341130228,0.3922708644
 ,0.\H,0,3.3397311086,0.3922061223,0.\\Version=EM64L-G09RevD.01\State=2
 -B1\HF=-55.5749363\MP2=-55.7284468\MP3=-55.744742\MP4D=-55.7487458\MP4
 DQ=-55.746195\PUHF=-55.5779891\PMP2-0=-55.7303499\PMP3-0=-55.7458738\M
 P4SDQ=-55.747078\CCSD=-55.7479015\CCSD(T)=-55.7518286\S2=0.759211\S2-1
 =0.752251\S2A=0.75005\RMSD=8.980e-09\PG=C02V [C2(N1),SGV(H2)]\\@


 I MET A TRAVELLER FROM AN ANTIQUE LAND
 WHO SAID... TWO VAST AND TRUNKLESS LEGS OF STONE
 STAND IN THE DESERT..... NEAR THEM,  ON THE SAND,
 HALF SUNK,  A SHATTERED VISAGE LIES,  WHOSE FROWN,
 AND WRINKLED LIP,  AND SNEER OF COLD COMMAND
 TELL THAT ITS SCULPTOR WELL THOSE PASSIONS READ
 WHICH YET SURVIVE,  STAMPED ON THESE LIFELESS THINGS
 THE HAND THAT MOCKED THEM,  AND THE HEART THAT FED-
 AND ON THE PEDESTAL THESE WORDS APPEAR 
 MY NAME IS OZYMANDIAS, KING OF KINGS--   
 LOOK ON MY WORKS YE MIGHTY AND DESPAIR. 
 NOTHING BESIDE REMAINS,  ROUND THE DECAY 
 OF THAT COLOSSAL WRECK,  BOUNDLESS AND BARE
 THE LONE AND LEVEL SANDS STRETCH FAR AWAY.
                                    SHELLEY
 Job cpu time:       0 days  0 hours  1 minutes 26.8 seconds.
 File lengths (MBytes):  RWF=     20 Int=      0 D2E=      0 Chk=      2 Scr=      1
 Normal termination of Gaussian 09 at Thu Aug 31 18:54:39 2023.
