 Entering Gaussian System, Link 0=g09
 Input=NO2_ccsdt_avdz.gjf
 Output=NO2_ccsdt_avdz.log
 Initial command:
 /opt/local/g09/l1.exe "/data/tmp/Gau-63281.inp" -scrdir="/data/tmp/"
 Entering Link 1 = /opt/local/g09/l1.exe PID=     63282.
  
 Copyright (c) 1988,1990,1992,1993,1995,1998,2003,2009,2013,
            Gaussian, Inc.  All Rights Reserved.
  
 This is part of the Gaussian(R) 09 program.  It is based on
 the Gaussian(R) 03 system (copyright 2003, Gaussian, Inc.),
 the Gaussian(R) 98 system (copyright 1998, Gaussian, Inc.),
 the Gaussian(R) 94 system (copyright 1995, Gaussian, Inc.),
 the Gaussian 92(TM) system (copyright 1992, Gaussian, Inc.),
 the Gaussian 90(TM) system (copyright 1990, Gaussian, Inc.),
 the Gaussian 88(TM) system (copyright 1988, Gaussian, Inc.),
 the Gaussian 86(TM) system (copyright 1986, Carnegie Mellon
 University), and the Gaussian 82(TM) system (copyright 1983,
 Carnegie Mellon University). Gaussian is a federally registered
 trademark of Gaussian, Inc.
  
 This software contains proprietary and confidential information,
 including trade secrets, belonging to Gaussian, Inc.
  
 This software is provided under written license and may be
 used, copied, transmitted, or stored only in accord with that
 written license.
  
 The following legend is applicable only to US Government
 contracts under FAR:
  
                    RESTRICTED RIGHTS LEGEND
  
 Use, reproduction and disclosure by the US Government is
 subject to restrictions as set forth in subparagraphs (a)
 and (c) of the Commercial Computer Software - Restricted
 Rights clause in FAR 52.227-19.
  
 Gaussian, Inc.
 340 Quinnipiac St., Bldg. 40, Wallingford CT 06492
  
  
 ---------------------------------------------------------------
 Warning -- This program may not be used in any manner that
 competes with the business of Gaussian, Inc. or will provide
 assistance to any competitor of Gaussian, Inc.  The licensee
 of this program is prohibited from giving any competitor of
 Gaussian, Inc. access to this program.  By using this program,
 the user acknowledges that Gaussian, Inc. is engaged in the
 business of creating and licensing software in the field of
 computational chemistry and represents and warrants to the
 licensee that it is not a competitor of Gaussian, Inc. and that
 it will not use this program in any manner prohibited above.
 ---------------------------------------------------------------
  

 Cite this work as:
 Gaussian 09, Revision D.01,
 M. J. Frisch, G. W. Trucks, H. B. Schlegel, G. E. Scuseria, 
 M. A. Robb, J. R. Cheeseman, G. Scalmani, V. Barone, B. Mennucci, 
 G. A. Petersson, H. Nakatsuji, M. Caricato, X. Li, H. P. Hratchian, 
 A. F. Izmaylov, J. Bloino, G. Zheng, J. L. Sonnenberg, M. Hada, 
 M. Ehara, K. Toyota, R. Fukuda, J. Hasegawa, M. Ishida, T. Nakajima, 
 Y. Honda, O. Kitao, H. Nakai, T. Vreven, J. A. Montgomery, Jr., 
 J. E. Peralta, F. Ogliaro, M. Bearpark, J. J. Heyd, E. Brothers, 
 K. N. Kudin, V. N. Staroverov, T. Keith, R. Kobayashi, J. Normand, 
 K. Raghavachari, A. Rendell, J. C. Burant, S. S. Iyengar, J. Tomasi, 
 M. Cossi, N. Rega, J. M. Millam, M. Klene, J. E. Knox, J. B. Cross, 
 V. Bakken, C. Adamo, J. Jaramillo, R. Gomperts, R. E. Stratmann, 
 O. Yazyev, A. J. Austin, R. Cammi, C. Pomelli, J. W. Ochterski, 
 R. L. Martin, K. Morokuma, V. G. Zakrzewski, G. A. Voth, 
 P. Salvador, J. J. Dannenberg, S. Dapprich, A. D. Daniels, 
 O. Farkas, J. B. Foresman, J. V. Ortiz, J. Cioslowski, 
 and D. J. Fox, Gaussian, Inc., Wallingford CT, 2013.
 
 ******************************************
 Gaussian 09:  EM64L-G09RevD.01 24-Apr-2013
                31-Aug-2023 
 ******************************************
 %nprocshared=32
 Will use up to   32 processors via shared memory.
 %mem=128GB
 %chk=NO2_ccsdt_avdz.chk
 ---------------------------------------------------
 #p CCSD(T,T1Diag)/aug-cc-pvdz geom=check guess=read
 ---------------------------------------------------
 1/29=2,38=1/1;
 2/12=2,40=1/2;
 3/5=16,7=10,11=9,14=-4,16=1,25=1,30=1,116=-2/1,2,3;
 4/5=1/1;
 5/5=2,38=6/2;
 8/6=4,9=120000,10=1/1,4;
 9/5=7,14=2,36=1/13;
 6/7=2,8=2,9=2,10=2/1;
 99/5=1,9=1/99;
 Leave Link    1 at Thu Aug 31 18:54:41 2023, MaxMem= 17179869184 cpu:         1.7
 (Enter /opt/local/g09/l101.exe)
 -------------------
 Title Card Required
 -------------------
 Structure from the checkpoint file:  "NO2_ccsdt_avdz.chk"
 Charge =  0 Multiplicity = 2
 Redundant internal coordinates found in file.
 N,0,2.9217436682,-0.131705814,0.
 O,0,1.8105337886,0.2995827058,0.
 O,0,4.0070568532,0.3605512382,0.
 Recover connectivity data from disk.
 NAtoms=      3 NQM=        3 NQMF=       0 NMMI=      0 NMMIF=      0
                NMic=       0 NMicF=      0.
                    Isotopes and Nuclear Properties:
 (Nuclear quadrupole moments (NQMom) in fm**2, nuclear magnetic moments (NMagM)
  in nuclear magnetons)

  Atom         1           2           3
 IAtWgt=          14          16          16
 AtmWgt=  14.0030740  15.9949146  15.9949146
 NucSpn=           2           0           0
 AtZEff=  -4.5500000  -5.6000000  -5.6000000
 NQMom=    2.0440000   0.0000000   0.0000000
 NMagM=    0.4037610   0.0000000   0.0000000
 AtZNuc=   7.0000000   8.0000000   8.0000000
 Leave Link  101 at Thu Aug 31 18:54:42 2023, MaxMem= 17179869184 cpu:         4.3
 (Enter /opt/local/g09/l202.exe)
                          Input orientation:                          
 ---------------------------------------------------------------------
 Center     Atomic      Atomic             Coordinates (Angstroms)
 Number     Number       Type             X           Y           Z
 ---------------------------------------------------------------------
      1          7           0        2.921744   -0.131706    0.000000
      2          8           0        1.810534    0.299583    0.000000
      3          8           0        4.007057    0.360551    0.000000
 ---------------------------------------------------------------------
                    Distance matrix (angstroms):
                    1          2          3
     1  N    0.000000
     2  O    1.191972   0.000000
     3  O    1.191731   2.197369   0.000000
 Stoichiometry    NO2(2)
 Framework group  CS[SG(NO2)]
 Deg. of freedom     3
 Full point group                 CS      NOp   2
 RotChk:  IX=0 Diff= 2.05D-15
 Largest Abelian subgroup         CS      NOp   2
 Largest concise Abelian subgroup C1      NOp   1
                         Standard orientation:                         
 ---------------------------------------------------------------------
 Center     Atomic      Atomic             Coordinates (Angstroms)
 Number     Number       Type             X           Y           Z
 ---------------------------------------------------------------------
      1          7           0        0.000000    0.321360    0.000000
      2          8           0        1.098684   -0.140906    0.000000
      3          8           0       -1.098684   -0.140283    0.000000
 ---------------------------------------------------------------------
 Rotational constants (GHZ):    243.1502627     13.0875772     12.4191175
 Leave Link  202 at Thu Aug 31 18:54:42 2023, MaxMem= 17179869184 cpu:         1.3
 (Enter /opt/local/g09/l301.exe)
 Standard basis: Aug-CC-pVDZ (5D, 7F)
 Ernie: Thresh=  0.10000D-02 Tol=  0.10000D-05 Strict=F.
 Ernie:  6 primitive shells out of 75 were deleted.
 There are    54 symmetry adapted cartesian basis functions of A'  symmetry.
 There are    21 symmetry adapted cartesian basis functions of A"  symmetry.
 There are    48 symmetry adapted basis functions of A'  symmetry.
 There are    21 symmetry adapted basis functions of A"  symmetry.
    69 basis functions,   129 primitive gaussians,    75 cartesian basis functions
    12 alpha electrons       11 beta electrons
       nuclear repulsion energy        65.1402317994 Hartrees.
 IExCor=    0 DFT=F Ex=HF Corr=None ExCW=0 ScaHFX=  1.000000
 ScaDFX=  1.000000  1.000000  1.000000  1.000000 ScalE2=  1.000000  1.000000
 IRadAn=      0 IRanWt=     -1 IRanGd=            0 ICorTp=0 IEmpDi=  4
 NAtoms=    3 NActive=    3 NUniq=    3 SFac= 1.00D+00 NAtFMM=   60 NAOKFM=F Big=F
 Integral buffers will be    131072 words long.
 Raffenetti 2 integral format.
 Two-electron integral symmetry is turned on.
 Leave Link  301 at Thu Aug 31 18:54:42 2023, MaxMem= 17179869184 cpu:         0.6
 (Enter /opt/local/g09/l302.exe)
 NPDir=0 NMtPBC=     1 NCelOv=     1 NCel=       1 NClECP=     1 NCelD=      1
         NCelK=      1 NCelE2=     1 NClLst=     1 CellRange=     0.0.
 One-electron integrals computed using PRISM.
 NBasis=    69 RedAO= T EigKep=  1.06D-03  NBF=    48    21
 NBsUse=    69 1.00D-06 EigRej= -1.00D+00 NBFU=    48    21
 Leave Link  302 at Thu Aug 31 18:54:42 2023, MaxMem= 17179869184 cpu:         3.4
 (Enter /opt/local/g09/l303.exe)
 DipDrv:  MaxL=1.
 Leave Link  303 at Thu Aug 31 18:54:42 2023, MaxMem= 17179869184 cpu:         1.2
 (Enter /opt/local/g09/l401.exe)
 Initial guess from the checkpoint file:  "NO2_ccsdt_avdz.chk"
 B after Tr=     0.000000    0.000000    0.000000
         Rot=    1.000000    0.000000    0.000000    0.000000 Ang=   0.00 deg.
 Guess basis will be translated and rotated to current coordinates.
 JPrj=2 DoOrth=T DoCkMO=T.
 Initial guess orbital symmetries:
 Alpha Orbitals:
       Occupied  (A') (A') (A') (A') (A') (A') (A') (A') (A") (A')
                 (A") (A')
       Virtual   (A") (A') (A') (A') (A') (A") (A') (A') (A') (A")
                 (A') (A") (A') (A') (A") (A") (A') (A') (A') (A")
                 (A') (A") (A') (A') (A") (A') (A') (A") (A') (A')
                 (A") (A') (A') (A") (A") (A') (A') (A") (A') (A')
                 (A') (A") (A") (A') (A') (A') (A") (A") (A') (A')
                 (A') (A") (A') (A') (A') (A') (A')
 Beta  Orbitals:
       Occupied  (A') (A') (A') (A') (A') (A') (A") (A') (A') (A")
                 (A')
       Virtual   (A') (A") (A') (A') (A') (A") (A') (A') (A') (A")
                 (A') (A') (A") (A') (A") (A') (A") (A') (A') (A')
                 (A") (A') (A") (A') (A') (A") (A') (A') (A") (A')
                 (A') (A") (A') (A') (A") (A") (A') (A') (A") (A')
                 (A') (A') (A") (A") (A') (A') (A') (A") (A") (A')
                 (A') (A') (A") (A') (A') (A') (A') (A')
 The electronic state of the initial guess is 2-A'.
 Initial guess <Sx>= 0.0000 <Sy>= 0.0000 <Sz>= 0.5000 <S**2>= 0.7535 S= 0.5017
 Leave Link  401 at Thu Aug 31 18:54:42 2023, MaxMem= 17179869184 cpu:         1.3
 (Enter /opt/local/g09/l502.exe)
 UHF open shell SCF:
 Using DIIS extrapolation, IDIIS=  1040.
 Integral symmetry usage will be decided dynamically.
 Keep R1 and R2 ints in memory in symmetry-blocked form, NReq=4541396.
 IVT=       38408 IEndB=       38408 NGot= 17179869184 MDV= 17176826922
 LenX= 17176826922 LenY= 17176820856
 Requested convergence on RMS density matrix=1.00D-08 within 128 cycles.
 Requested convergence on MAX density matrix=1.00D-06.
 Requested convergence on             energy=1.00D-06.
 No special actions if energy rises.
 FoFCou: FMM=F IPFlag=           0 FMFlag=           0 FMFlg1=           0
         NFxFlg=           0 DoJE=F BraDBF=F KetDBF=F FulRan=T
         wScrn=  0.000000 ICntrl=     600 IOpCl=  0 I1Cent=           0 NGrid=           0
         NMat0=    1 NMatS0=   2415 NMatT0=    0 NMatD0=    1 NMtDS0=    0 NMtDT0=    0
 Petite list used in FoFCou.

 Cycle   1  Pass 1  IDiag  1:
 E= -204.038122452788    
 DIIS: error= 1.94D-02 at cycle   1 NSaved=   1.
 NSaved= 1 IEnMin= 1 EnMin= -204.038122452788     IErMin= 1 ErrMin= 1.94D-02
 ErrMax= 1.94D-02  0.00D+00 EMaxC= 1.00D-01 BMatC= 1.55D-01 BMatP= 1.55D-01
 IDIUse=3 WtCom= 8.06D-01 WtEn= 1.94D-01
 Coeff-Com:  0.100D+01
 Coeff-En:   0.100D+01
 Coeff:      0.100D+01
 Gap=     0.565 Goal=   None    Shift=    0.000
 Gap=     0.524 Goal=   None    Shift=    0.000
 GapD=    0.524 DampG=2.000 DampE=0.500 DampFc=1.0000 IDamp=-1.
 RMSDP=5.91D-03 MaxDP=1.13D-01              OVMax= 5.46D-02

 Cycle   2  Pass 1  IDiag  1:
 E= -204.063038824559     Delta-E=       -0.024916371770 Rises=F Damp=F
 DIIS: error= 7.95D-03 at cycle   2 NSaved=   2.
 NSaved= 2 IEnMin= 2 EnMin= -204.063038824559     IErMin= 2 ErrMin= 7.95D-03
 ErrMax= 7.95D-03  0.00D+00 EMaxC= 1.00D-01 BMatC= 1.12D-02 BMatP= 1.55D-01
 IDIUse=3 WtCom= 9.21D-01 WtEn= 7.95D-02
 Coeff-Com: -0.622D-02 0.101D+01
 Coeff-En:   0.000D+00 0.100D+01
 Coeff:     -0.573D-02 0.101D+01
 Gap=     0.566 Goal=   None    Shift=    0.000
 Gap=     0.501 Goal=   None    Shift=    0.000
 RMSDP=1.10D-03 MaxDP=2.26D-02 DE=-2.49D-02 OVMax= 1.59D-02

 Cycle   3  Pass 1  IDiag  1:
 E= -204.065459705238     Delta-E=       -0.002420880680 Rises=F Damp=F
 DIIS: error= 3.54D-03 at cycle   3 NSaved=   3.
 NSaved= 3 IEnMin= 3 EnMin= -204.065459705238     IErMin= 3 ErrMin= 3.54D-03
 ErrMax= 3.54D-03  0.00D+00 EMaxC= 1.00D-01 BMatC= 2.55D-03 BMatP= 1.12D-02
 IDIUse=3 WtCom= 9.65D-01 WtEn= 3.54D-02
 Coeff-Com: -0.440D-01 0.273D+00 0.771D+00
 Coeff-En:   0.000D+00 0.000D+00 0.100D+01
 Coeff:     -0.424D-01 0.263D+00 0.779D+00
 Gap=     0.570 Goal=   None    Shift=    0.000
 Gap=     0.509 Goal=   None    Shift=    0.000
 RMSDP=3.51D-04 MaxDP=8.53D-03 DE=-2.42D-03 OVMax= 1.47D-02

 Cycle   4  Pass 1  IDiag  1:
 E= -204.066194070989     Delta-E=       -0.000734365751 Rises=F Damp=F
 DIIS: error= 1.43D-03 at cycle   4 NSaved=   4.
 NSaved= 4 IEnMin= 4 EnMin= -204.066194070989     IErMin= 4 ErrMin= 1.43D-03
 ErrMax= 1.43D-03  0.00D+00 EMaxC= 1.00D-01 BMatC= 6.30D-04 BMatP= 2.55D-03
 IDIUse=3 WtCom= 9.86D-01 WtEn= 1.43D-02
 Coeff-Com: -0.498D-02-0.116D+00 0.188D+00 0.933D+00
 Coeff-En:   0.000D+00 0.000D+00 0.000D+00 0.100D+01
 Coeff:     -0.491D-02-0.114D+00 0.185D+00 0.934D+00
 Gap=     0.571 Goal=   None    Shift=    0.000
 Gap=     0.510 Goal=   None    Shift=    0.000
 RMSDP=1.85D-04 MaxDP=5.58D-03 DE=-7.34D-04 OVMax= 4.63D-03

 Cycle   5  Pass 1  IDiag  1:
 E= -204.066388618228     Delta-E=       -0.000194547239 Rises=F Damp=F
 DIIS: error= 4.81D-04 at cycle   5 NSaved=   5.
 NSaved= 5 IEnMin= 5 EnMin= -204.066388618228     IErMin= 5 ErrMin= 4.81D-04
 ErrMax= 4.81D-04  0.00D+00 EMaxC= 1.00D-01 BMatC= 5.84D-05 BMatP= 6.30D-04
 IDIUse=3 WtCom= 9.95D-01 WtEn= 4.81D-03
 Coeff-Com:  0.857D-02-0.622D-01-0.999D-01-0.375D-01 0.119D+01
 Coeff-En:   0.000D+00 0.000D+00 0.000D+00 0.000D+00 0.100D+01
 Coeff:      0.853D-02-0.619D-01-0.994D-01-0.374D-01 0.119D+01
 Gap=     0.572 Goal=   None    Shift=    0.000
 Gap=     0.512 Goal=   None    Shift=    0.000
 RMSDP=1.09D-04 MaxDP=3.51D-03 DE=-1.95D-04 OVMax= 4.85D-03

 Cycle   6  Pass 1  IDiag  1:
 E= -204.066434547363     Delta-E=       -0.000045929135 Rises=F Damp=F
 DIIS: error= 2.25D-04 at cycle   6 NSaved=   6.
 NSaved= 6 IEnMin= 6 EnMin= -204.066434547363     IErMin= 6 ErrMin= 2.25D-04
 ErrMax= 2.25D-04  0.00D+00 EMaxC= 1.00D-01 BMatC= 1.09D-05 BMatP= 5.84D-05
 IDIUse=3 WtCom= 9.98D-01 WtEn= 2.25D-03
 Coeff-Com: -0.372D-02 0.436D-01 0.422D-01-0.932D-01-0.601D+00 0.161D+01
 Coeff-En:   0.000D+00 0.000D+00 0.000D+00 0.000D+00 0.000D+00 0.100D+01
 Coeff:     -0.371D-02 0.435D-01 0.421D-01-0.930D-01-0.600D+00 0.161D+01
 Gap=     0.572 Goal=   None    Shift=    0.000
 Gap=     0.513 Goal=   None    Shift=    0.000
 RMSDP=6.13D-05 MaxDP=1.49D-03 DE=-4.59D-05 OVMax= 2.85D-03

 Cycle   7  Pass 1  IDiag  1:
 E= -204.066445895196     Delta-E=       -0.000011347833 Rises=F Damp=F
 DIIS: error= 1.25D-04 at cycle   7 NSaved=   7.
 NSaved= 7 IEnMin= 7 EnMin= -204.066445895196     IErMin= 7 ErrMin= 1.25D-04
 ErrMax= 1.25D-04  0.00D+00 EMaxC= 1.00D-01 BMatC= 2.71D-06 BMatP= 1.09D-05
 IDIUse=3 WtCom= 9.99D-01 WtEn= 1.25D-03
 Coeff-Com:  0.781D-03-0.154D-01-0.472D-02 0.562D-01 0.176D+00-0.102D+01
 Coeff-Com:  0.181D+01
 Coeff-En:   0.000D+00 0.000D+00 0.000D+00 0.000D+00 0.000D+00 0.000D+00
 Coeff-En:   0.100D+01
 Coeff:      0.780D-03-0.154D-01-0.471D-02 0.561D-01 0.176D+00-0.102D+01
 Coeff:      0.181D+01
 Gap=     0.572 Goal=   None    Shift=    0.000
 Gap=     0.513 Goal=   None    Shift=    0.000
 RMSDP=3.25D-05 MaxDP=7.31D-04 DE=-1.13D-05 OVMax= 1.79D-03

 Cycle   8  Pass 1  IDiag  1:
 E= -204.066449804076     Delta-E=       -0.000003908879 Rises=F Damp=F
 DIIS: error= 8.43D-05 at cycle   8 NSaved=   8.
 NSaved= 8 IEnMin= 8 EnMin= -204.066449804076     IErMin= 8 ErrMin= 8.43D-05
 ErrMax= 8.43D-05  0.00D+00 EMaxC= 1.00D-01 BMatC= 6.83D-07 BMatP= 2.71D-06
 IDIUse=1 WtCom= 1.00D+00 WtEn= 0.00D+00
 Coeff-Com:  0.476D-03-0.358D-02-0.540D-02-0.416D-02 0.607D-01 0.848D-01
 Coeff-Com: -0.924D+00 0.179D+01
 Coeff:      0.476D-03-0.358D-02-0.540D-02-0.416D-02 0.607D-01 0.848D-01
 Coeff:     -0.924D+00 0.179D+01
 Gap=     0.572 Goal=   None    Shift=    0.000
 Gap=     0.514 Goal=   None    Shift=    0.000
 RMSDP=2.14D-05 MaxDP=6.18D-04 DE=-3.91D-06 OVMax= 1.12D-03

 Cycle   9  Pass 1  IDiag  1:
 E= -204.066451057813     Delta-E=       -0.000001253738 Rises=F Damp=F
 DIIS: error= 4.00D-05 at cycle   9 NSaved=   9.
 NSaved= 9 IEnMin= 9 EnMin= -204.066451057813     IErMin= 9 ErrMin= 4.00D-05
 ErrMax= 4.00D-05  0.00D+00 EMaxC= 1.00D-01 BMatC= 1.49D-07 BMatP= 6.83D-07
 IDIUse=1 WtCom= 1.00D+00 WtEn= 0.00D+00
 Coeff-Com: -0.256D-03 0.362D-02 0.243D-02-0.750D-02-0.492D-01 0.153D+00
 Coeff-Com: -0.339D-01-0.597D+00 0.153D+01
 Coeff:     -0.256D-03 0.362D-02 0.243D-02-0.750D-02-0.492D-01 0.153D+00
 Coeff:     -0.339D-01-0.597D+00 0.153D+01
 Gap=     0.572 Goal=   None    Shift=    0.000
 Gap=     0.514 Goal=   None    Shift=    0.000
 RMSDP=8.51D-06 MaxDP=2.93D-04 DE=-1.25D-06 OVMax= 5.35D-04

 Cycle  10  Pass 1  IDiag  1:
 E= -204.066451305019     Delta-E=       -0.000000247206 Rises=F Damp=F
 DIIS: error= 1.97D-05 at cycle  10 NSaved=  10.
 NSaved=10 IEnMin=10 EnMin= -204.066451305019     IErMin=10 ErrMin= 1.97D-05
 ErrMax= 1.97D-05  0.00D+00 EMaxC= 1.00D-01 BMatC= 6.18D-08 BMatP= 1.49D-07
 IDIUse=1 WtCom= 1.00D+00 WtEn= 0.00D+00
 Coeff-Com: -0.227D-03 0.235D-02 0.225D-02-0.161D-02-0.344D-01 0.296D-01
 Coeff-Com:  0.253D+00-0.743D+00 0.576D+00 0.916D+00
 Coeff:     -0.227D-03 0.235D-02 0.225D-02-0.161D-02-0.344D-01 0.296D-01
 Coeff:      0.253D+00-0.743D+00 0.576D+00 0.916D+00
 Gap=     0.572 Goal=   None    Shift=    0.000
 Gap=     0.514 Goal=   None    Shift=    0.000
 RMSDP=3.97D-06 MaxDP=1.37D-04 DE=-2.47D-07 OVMax= 2.50D-04

 Cycle  11  Pass 1  IDiag  1:
 E= -204.066451369834     Delta-E=       -0.000000064815 Rises=F Damp=F
 DIIS: error= 1.27D-05 at cycle  11 NSaved=  11.
 NSaved=11 IEnMin=11 EnMin= -204.066451369834     IErMin=11 ErrMin= 1.27D-05
 ErrMax= 1.27D-05  0.00D+00 EMaxC= 1.00D-01 BMatC= 1.75D-08 BMatP= 6.18D-08
 IDIUse=1 WtCom= 1.00D+00 WtEn= 0.00D+00
 Coeff-Com:  0.990D-04-0.149D-02-0.116D-02 0.317D-02 0.217D-01-0.715D-01
 Coeff-Com:  0.284D-01 0.239D+00-0.696D+00 0.762D-01 0.140D+01
 Coeff:      0.990D-04-0.149D-02-0.116D-02 0.317D-02 0.217D-01-0.715D-01
 Coeff:      0.284D-01 0.239D+00-0.696D+00 0.762D-01 0.140D+01
 Gap=     0.571 Goal=   None    Shift=    0.000
 Gap=     0.514 Goal=   None    Shift=    0.000
 RMSDP=3.08D-06 MaxDP=1.04D-04 DE=-6.48D-08 OVMax= 1.88D-04

 Cycle  12  Pass 1  IDiag  1:
 E= -204.066451395162     Delta-E=       -0.000000025327 Rises=F Damp=F
 DIIS: error= 5.27D-06 at cycle  12 NSaved=  12.
 NSaved=12 IEnMin=12 EnMin= -204.066451395162     IErMin=12 ErrMin= 5.27D-06
 ErrMax= 5.27D-06  0.00D+00 EMaxC= 1.00D-01 BMatC= 2.64D-09 BMatP= 1.75D-08
 IDIUse=1 WtCom= 1.00D+00 WtEn= 0.00D+00
 Coeff-Com: -0.714D-05 0.284D-03 0.857D-04-0.124D-02-0.402D-02 0.345D-01
 Coeff-Com: -0.870D-01 0.780D-01 0.182D+00-0.229D+00-0.620D+00 0.165D+01
 Coeff:     -0.714D-05 0.284D-03 0.857D-04-0.124D-02-0.402D-02 0.345D-01
 Coeff:     -0.870D-01 0.780D-01 0.182D+00-0.229D+00-0.620D+00 0.165D+01
 Gap=     0.571 Goal=   None    Shift=    0.000
 Gap=     0.514 Goal=   None    Shift=    0.000
 RMSDP=1.10D-06 MaxDP=3.66D-05 DE=-2.53D-08 OVMax= 7.07D-05

 Cycle  13  Pass 1  IDiag  1:
 E= -204.066451398883     Delta-E=       -0.000000003721 Rises=F Damp=F
 DIIS: error= 1.47D-06 at cycle  13 NSaved=  13.
 NSaved=13 IEnMin=13 EnMin= -204.066451398883     IErMin=13 ErrMin= 1.47D-06
 ErrMax= 1.47D-06  0.00D+00 EMaxC= 1.00D-01 BMatC= 3.82D-10 BMatP= 2.64D-09
 IDIUse=1 WtCom= 1.00D+00 WtEn= 0.00D+00
 Coeff-Com: -0.164D-04 0.155D-03 0.169D-03 0.150D-03-0.250D-02-0.413D-02
 Coeff-Com:  0.405D-01-0.818D-01 0.614D-02 0.126D+00 0.142D+00-0.100D+01
 Coeff-Com:  0.177D+01
 Coeff:     -0.164D-04 0.155D-03 0.169D-03 0.150D-03-0.250D-02-0.413D-02
 Coeff:      0.405D-01-0.818D-01 0.614D-02 0.126D+00 0.142D+00-0.100D+01
 Coeff:      0.177D+01
 Gap=     0.571 Goal=   None    Shift=    0.000
 Gap=     0.514 Goal=   None    Shift=    0.000
 RMSDP=4.48D-07 MaxDP=1.15D-05 DE=-3.72D-09 OVMax= 2.19D-05

 Cycle  14  Pass 1  IDiag  1:
 E= -204.066451399376     Delta-E=       -0.000000000493 Rises=F Damp=F
 DIIS: error= 5.13D-07 at cycle  14 NSaved=  14.
 NSaved=14 IEnMin=14 EnMin= -204.066451399376     IErMin=14 ErrMin= 5.13D-07
 ErrMax= 5.13D-07  0.00D+00 EMaxC= 1.00D-01 BMatC= 3.73D-11 BMatP= 3.82D-10
 IDIUse=1 WtCom= 1.00D+00 WtEn= 0.00D+00
 Coeff-Com:  0.768D-05-0.918D-04-0.102D-03 0.234D-04 0.155D-02-0.785D-03
 Coeff-Com: -0.126D-01 0.332D-01-0.169D-01-0.425D-01-0.219D-01 0.369D+00
 Coeff-Com: -0.907D+00 0.160D+01
 Coeff:      0.768D-05-0.918D-04-0.102D-03 0.234D-04 0.155D-02-0.785D-03
 Coeff:     -0.126D-01 0.332D-01-0.169D-01-0.425D-01-0.219D-01 0.369D+00
 Coeff:     -0.907D+00 0.160D+01
 Gap=     0.571 Goal=   None    Shift=    0.000
 Gap=     0.514 Goal=   None    Shift=    0.000
 RMSDP=1.37D-07 MaxDP=2.63D-06 DE=-4.93D-10 OVMax= 5.20D-06

 Cycle  15  Pass 1  IDiag  1:
 E= -204.066451399430     Delta-E=       -0.000000000054 Rises=F Damp=F
 DIIS: error= 5.10D-07 at cycle  15 NSaved=  15.
 NSaved=15 IEnMin=15 EnMin= -204.066451399430     IErMin=15 ErrMin= 5.10D-07
 ErrMax= 5.10D-07  0.00D+00 EMaxC= 1.00D-01 BMatC= 1.64D-11 BMatP= 3.73D-11
 IDIUse=1 WtCom= 1.00D+00 WtEn= 0.00D+00
 Coeff-Com: -0.306D-05 0.392D-04 0.414D-04-0.194D-04-0.661D-03 0.750D-03
 Coeff-Com:  0.367D-02-0.116D-01 0.879D-02 0.137D-01-0.150D-02-0.112D+00
 Coeff-Com:  0.319D+00-0.727D+00 0.151D+01
 Coeff:     -0.306D-05 0.392D-04 0.414D-04-0.194D-04-0.661D-03 0.750D-03
 Coeff:      0.367D-02-0.116D-01 0.879D-02 0.137D-01-0.150D-02-0.112D+00
 Coeff:      0.319D+00-0.727D+00 0.151D+01
 Gap=     0.571 Goal=   None    Shift=    0.000
 Gap=     0.514 Goal=   None    Shift=    0.000
 RMSDP=7.78D-08 MaxDP=2.03D-06 DE=-5.43D-11 OVMax= 4.63D-06

 Cycle  16  Pass 1  IDiag  1:
 E= -204.066451399462     Delta-E=       -0.000000000032 Rises=F Damp=F
 DIIS: error= 5.07D-07 at cycle  16 NSaved=  16.
 NSaved=16 IEnMin=16 EnMin= -204.066451399462     IErMin=16 ErrMin= 5.07D-07
 ErrMax= 5.07D-07  0.00D+00 EMaxC= 1.00D-01 BMatC= 1.55D-11 BMatP= 1.64D-11
 IDIUse=1 WtCom= 1.00D+00 WtEn= 0.00D+00
 Coeff-Com:  0.254D-05-0.333D-04-0.343D-04 0.196D-04 0.552D-03-0.712D-03
 Coeff-Com: -0.272D-02 0.915D-02-0.776D-02-0.936D-02 0.892D-03 0.880D-01
 Coeff-Com: -0.257D+00 0.617D+00-0.152D+01 0.208D+01
 Coeff:      0.254D-05-0.333D-04-0.343D-04 0.196D-04 0.552D-03-0.712D-03
 Coeff:     -0.272D-02 0.915D-02-0.776D-02-0.936D-02 0.892D-03 0.880D-01
 Coeff:     -0.257D+00 0.617D+00-0.152D+01 0.208D+01
 Gap=     0.571 Goal=   None    Shift=    0.000
 Gap=     0.514 Goal=   None    Shift=    0.000
 RMSDP=1.04D-07 MaxDP=2.78D-06 DE=-3.20D-11 OVMax= 6.33D-06

 Cycle  17  Pass 1  IDiag  1:
 E= -204.066451399504     Delta-E=       -0.000000000042 Rises=F Damp=F
 DIIS: error= 5.03D-07 at cycle  17 NSaved=  17.
 NSaved=17 IEnMin=17 EnMin= -204.066451399504     IErMin=17 ErrMin= 5.03D-07
 ErrMax= 5.03D-07  0.00D+00 EMaxC= 1.00D-01 BMatC= 1.52D-11 BMatP= 1.55D-11
 IDIUse=1 WtCom= 1.00D+00 WtEn= 0.00D+00
 Large coefficients: NSaved= 17 BigCof=    0.00 CofMax=   10.00 Det=-2.78D-15
 Inversion failed.  Reducing to 16 matrices.
 Large coefficients: NSaved= 16 BigCof=    0.00 CofMax=   10.00 Det=-8.73D-15
 Inversion failed.  Reducing to 15 matrices.
 Coeff-Com: -0.680D-07-0.123D-05 0.702D-05 0.216D-03-0.996D-03 0.167D-02
 Coeff-Com:  0.151D-03-0.162D-02-0.437D-02 0.153D-01-0.487D-02-0.153D+00
 Coeff-Com:  0.137D+01-0.674D+01 0.651D+01
 Coeff:     -0.680D-07-0.123D-05 0.702D-05 0.216D-03-0.996D-03 0.167D-02
 Coeff:      0.151D-03-0.162D-02-0.437D-02 0.153D-01-0.487D-02-0.153D+00
 Coeff:      0.137D+01-0.674D+01 0.651D+01
 Gap=     0.571 Goal=   None    Shift=    0.000
 Gap=     0.514 Goal=   None    Shift=    0.000
 RMSDP=5.38D-07 MaxDP=1.43D-05 DE=-4.20D-11 OVMax= 3.27D-05

 Cycle  18  Pass 1  IDiag  1:
 E= -204.066451399721     Delta-E=       -0.000000000216 Rises=F Damp=F
 DIIS: error= 4.83D-07 at cycle  18 NSaved=  16.
 NSaved=16 IEnMin=16 EnMin= -204.066451399721     IErMin=16 ErrMin= 4.83D-07
 ErrMax= 4.83D-07  0.00D+00 EMaxC= 1.00D-01 BMatC= 1.41D-11 BMatP= 1.52D-11
 IDIUse=1 WtCom= 1.00D+00 WtEn= 0.00D+00
 Large coefficients: NSaved= 16 BigCof=    0.00 CofMax=   10.00 Det=-2.82D-15
 Inversion failed.  Reducing to 15 matrices.
 Large coefficients: NSaved= 15 BigCof=   34.27 CofMax=   10.00 Det=-2.82D-15
 Inversion failed.  Reducing to 14 matrices.
 Large coefficients: NSaved= 14 BigCof=   33.43 CofMax=   10.00 Det=-2.87D-15
 Inversion failed.  Reducing to 13 matrices.
 Large coefficients: NSaved= 13 BigCof=   33.20 CofMax=   10.00 Det=-2.89D-15
 Inversion failed.  Reducing to 12 matrices.
 Large coefficients: NSaved= 12 BigCof=   29.83 CofMax=   10.00 Det=-3.36D-15
 Inversion failed.  Reducing to 11 matrices.
 Large coefficients: NSaved= 11 BigCof=   29.84 CofMax=   10.00 Det=-3.36D-15
 Inversion failed.  Reducing to 10 matrices.
 Large coefficients: NSaved= 10 BigCof=   29.75 CofMax=   10.00 Det=-3.37D-15
 Inversion failed.  Reducing to  9 matrices.
 Large coefficients: NSaved=  9 BigCof=   29.54 CofMax=   10.00 Det=-3.39D-15
 Inversion failed.  Reducing to  8 matrices.
 Large coefficients: NSaved=  8 BigCof=   29.53 CofMax=   10.00 Det=-3.42D-15
 Inversion failed.  Reducing to  7 matrices.
 Large coefficients: NSaved=  7 BigCof=   29.52 CofMax=   10.00 Det=-3.42D-15
 Inversion failed.  Reducing to  6 matrices.
 Large coefficients: NSaved=  6 BigCof=   29.50 CofMax=   10.00 Det=-3.43D-15
 Inversion failed.  Reducing to  5 matrices.
 Large coefficients: NSaved=  5 BigCof=   28.83 CofMax=   10.00 Det=-3.60D-15
 Inversion failed.  Reducing to  4 matrices.
 Large coefficients: NSaved=  4 BigCof=   25.59 CofMax=   10.00 Det=-4.39D-15
 Inversion failed.  Reducing to  3 matrices.
 Large coefficients: NSaved=  3 BigCof=   17.74 CofMax=   10.00 Det=-7.79D-15
 Inversion failed.  Reducing to  2 matrices.
 Coeff-Com: -0.483D+01 0.583D+01
 Coeff:     -0.483D+01 0.583D+01
 Gap=     0.571 Goal=   None    Shift=    0.000
 Gap=     0.514 Goal=   None    Shift=    0.000
 RMSDP=2.64D-06 MaxDP=7.02D-05 DE=-2.16D-10 OVMax= 1.60D-04

 Cycle  19  Pass 1  IDiag  1:
 E= -204.066451400648     Delta-E=       -0.000000000927 Rises=F Damp=F
 DIIS: error= 3.79D-07 at cycle  19 NSaved=   3.
 NSaved= 3 IEnMin= 3 EnMin= -204.066451400648     IErMin= 3 ErrMin= 3.79D-07
 ErrMax= 3.79D-07  0.00D+00 EMaxC= 1.00D-01 BMatC= 9.72D-12 BMatP= 1.41D-11
 IDIUse=1 WtCom= 1.00D+00 WtEn= 0.00D+00
 Large coefficients: NSaved=  3 BigCof=   16.31 CofMax=   10.00 Det=-1.45D-14
 Inversion failed.  Reducing to  2 matrices.
 Coeff-Com: -0.184D+01 0.284D+01
 Coeff:     -0.184D+01 0.284D+01
 Gap=     0.571 Goal=   None    Shift=    0.000
 Gap=     0.514 Goal=   None    Shift=    0.000
 RMSDP=4.86D-06 MaxDP=1.29D-04 DE=-9.27D-10 OVMax= 2.95D-04

 Cycle  20  Pass 1  IDiag  1:
 E= -204.066451401815     Delta-E=       -0.000000001167 Rises=F Damp=F
 DIIS: error= 2.24D-07 at cycle  20 NSaved=   3.
 NSaved= 3 IEnMin= 3 EnMin= -204.066451401815     IErMin= 3 ErrMin= 2.24D-07
 ErrMax= 2.24D-07  0.00D+00 EMaxC= 1.00D-01 BMatC= 4.00D-12 BMatP= 9.72D-12
 IDIUse=1 WtCom= 1.00D+00 WtEn= 0.00D+00
 Coeff-Com:  0.597D+00-0.168D+01 0.209D+01
 Coeff:      0.597D+00-0.168D+01 0.209D+01
 Gap=     0.571 Goal=   None    Shift=    0.000
 Gap=     0.514 Goal=   None    Shift=    0.000
 RMSDP=3.70D-06 MaxDP=9.87D-05 DE=-1.17D-09 OVMax= 2.25D-04

 Cycle  21  Pass 1  IDiag  1:
 E= -204.066451402232     Delta-E=       -0.000000000417 Rises=F Damp=F
 DIIS: error= 9.97D-08 at cycle  21 NSaved=   4.
 NSaved= 4 IEnMin= 4 EnMin= -204.066451402232     IErMin= 4 ErrMin= 9.97D-08
 ErrMax= 9.97D-08  0.00D+00 EMaxC= 1.00D-01 BMatC= 1.64D-12 BMatP= 4.00D-12
 IDIUse=1 WtCom= 1.00D+00 WtEn= 0.00D+00
 Coeff-Com:  0.148D+01-0.272D+01 0.133D+01 0.912D+00
 Coeff:      0.148D+01-0.272D+01 0.133D+01 0.912D+00
 Gap=     0.571 Goal=   None    Shift=    0.000
 Gap=     0.514 Goal=   None    Shift=    0.000
 RMSDP=1.77D-06 MaxDP=4.73D-05 DE=-4.17D-10 OVMax= 1.08D-04

 Cycle  22  Pass 1  IDiag  1:
 E= -204.066451402287     Delta-E=       -0.000000000055 Rises=F Damp=F
 DIIS: error= 2.13D-08 at cycle  22 NSaved=   5.
 NSaved= 5 IEnMin= 5 EnMin= -204.066451402287     IErMin= 5 ErrMin= 2.13D-08
 ErrMax= 2.13D-08  0.00D+00 EMaxC= 1.00D-01 BMatC= 4.99D-14 BMatP= 1.64D-12
 IDIUse=1 WtCom= 1.00D+00 WtEn= 0.00D+00
 Coeff-Com: -0.251D+00 0.465D+00-0.259D+00-0.137D+00 0.118D+01
 Coeff:     -0.251D+00 0.465D+00-0.259D+00-0.137D+00 0.118D+01
 Gap=     0.571 Goal=   None    Shift=    0.000
 Gap=     0.514 Goal=   None    Shift=    0.000
 RMSDP=1.09D-07 MaxDP=2.97D-06 DE=-5.48D-11 OVMax= 6.66D-06

 Cycle  23  Pass 1  IDiag  1:
 E= -204.066451402287     Delta-E=        0.000000000000 Rises=F Damp=F
 DIIS: error= 1.13D-08 at cycle  23 NSaved=   6.
 NSaved= 6 IEnMin= 6 EnMin= -204.066451402287     IErMin= 6 ErrMin= 1.13D-08
 ErrMax= 1.13D-08  0.00D+00 EMaxC= 1.00D-01 BMatC= 2.61D-14 BMatP= 4.99D-14
 IDIUse=1 WtCom= 1.00D+00 WtEn= 0.00D+00
 Coeff-Com: -0.523D+00 0.963D+00-0.479D+00-0.323D+00 0.448D+00 0.914D+00
 Coeff:     -0.523D+00 0.963D+00-0.479D+00-0.323D+00 0.448D+00 0.914D+00
 Gap=     0.571 Goal=   None    Shift=    0.000
 Gap=     0.514 Goal=   None    Shift=    0.000
 RMSDP=2.57D-08 MaxDP=7.07D-07 DE=-5.68D-14 OVMax= 1.55D-06

 Cycle  24  Pass 1  IDiag  1:
 E= -204.066451402287     Delta-E=        0.000000000000 Rises=F Damp=F
 DIIS: error= 9.44D-09 at cycle  24 NSaved=   7.
 NSaved= 7 IEnMin= 7 EnMin= -204.066451402287     IErMin= 7 ErrMin= 9.44D-09
 ErrMax= 9.44D-09  0.00D+00 EMaxC= 1.00D-01 BMatC= 9.37D-15 BMatP= 2.61D-14
 IDIUse=1 WtCom= 1.00D+00 WtEn= 0.00D+00
 Coeff-Com:  0.489D+00-0.906D+00 0.471D+00 0.282D+00-0.764D+00-0.612D+00
 Coeff-Com:  0.204D+01
 Coeff:      0.489D+00-0.906D+00 0.471D+00 0.282D+00-0.764D+00-0.612D+00
 Coeff:      0.204D+01
 Gap=     0.571 Goal=   None    Shift=    0.000
 Gap=     0.514 Goal=   None    Shift=    0.000
 RMSDP=8.80D-09 MaxDP=2.74D-07 DE=-3.98D-13 OVMax= 5.26D-07

 SCF Done:  E(UHF) =  -204.066451402     A.U. after   24 cycles
            NFock= 24  Conv=0.88D-08     -V/T= 2.0020
 <Sx>= 0.0000 <Sy>= 0.0000 <Sz>= 0.5000 <S**2>= 0.7700 S= 0.5100
 <L.S>= 0.000000000000E+00
 KE= 2.036632234450D+02 PE=-6.120477115939D+02 EE= 1.391778049473D+02
 Annihilation of the first spin contaminant:
 S**2 before annihilation     0.7700,   after     0.7503
 Leave Link  502 at Thu Aug 31 18:54:42 2023, MaxMem= 17179869184 cpu:         8.3
 (Enter /opt/local/g09/l801.exe)
 Windowed orbitals will be sorted by symmetry type.
 ExpMin= 5.61D-02 ExpMax= 1.17D+04 ExpMxC= 4.01D+02 IAcc=3 IRadAn=         5 AccDes= 0.00D+00
 HarFok:  IExCor=  205 AccDes= 0.00D+00 IRadAn=         5 IDoV=-2 UseB2=F ITyADJ=14
 ICtDFT= 12500011 ScaDFX=  1.000000  1.000000  1.000000  1.000000
 Largest valence mixing into a core orbital is  9.81D-05
 Largest core mixing into a valence orbital is  4.45D-05
 Largest valence mixing into a core orbital is  1.22D-04
 Largest core mixing into a valence orbital is  5.19D-05
 Range of M.O.s used for correlation:     4    69
 NBasis=    69 NAE=    12 NBE=    11 NFC=     3 NFV=     0
 NROrb=     66 NOA=     9 NOB=     8 NVA=    57 NVB=    58

 **** Warning!!: The largest alpha MO coefficient is  0.15802942D+02


 **** Warning!!: The largest beta MO coefficient is  0.15873491D+02

 Leave Link  801 at Thu Aug 31 18:54:42 2023, MaxMem= 17179869184 cpu:         2.6
 (Enter /opt/local/g09/l804.exe)
 Open-shell transformation, MDV= 17179869184 ITran=4 ISComp=2.
 Semi-Direct transformation.
 ModeAB=           2 MOrb=             9 LenV=   17179603532
 LASXX=       591999 LTotXX=      591999 LenRXX=      591999
 LTotAB=      634845 MaxLAS=     1692900 LenRXY=     1692900
 NonZer=     1761804 LenScr=     3302400 LnRSAI=           0
 LnScr1=           0 LExtra=           0 Total=      5587299
 MaxDsk=          -1 SrtSym=           F ITran=            4
 DoSDTr:  NPSUse= 32
 JobTyp=1 Pass  1:  I=   1 to   9.
 (rs|ai) integrals will be sorted in core.
 Complete sort for first half transformation.
 First half transformation complete.
 Complete sort for second half transformation.
 Second half transformation complete.
 ModeAB=           2 MOrb=             8 LenV=   17179603532
 LASXX=       531538 LTotXX=      531538 LenRXX=     1504800
 LTotAB=      422864 MaxLAS=     1504800 LenRXY=      422864
 NonZer=     1566048 LenScr=     3131392 LnRSAI=           0
 LnScr1=           0 LExtra=           0 Total=      5059056
 MaxDsk=          -1 SrtSym=           F ITran=            4
 DoSDTr:  NPSUse= 32
 JobTyp=2 Pass  1:  I=   1 to   8.
 (rs|ai) integrals will be sorted in core.
 Complete sort for first half transformation.
 First half transformation complete.
 Complete sort for second half transformation.
 Second half transformation complete.
 Spin components of T(2) and E(2):
     alpha-alpha T2 =       0.2286772025D-01 E2=     -0.7825595893D-01
     alpha-beta  T2 =       0.1264588061D+00 E2=     -0.4042625544D+00
     beta-beta   T2 =       0.3004104084D-01 E2=     -0.8412378652D-01
 ANorm=    0.1085986909D+01
 E2 =    -0.5666422999D+00 EUMP2 =    -0.20463309370215D+03
 (S**2,0)=  0.77003D+00           (S**2,1)=  0.75457D+00
 E(PUHF)=      -0.20407244797D+03        E(PMP2)=      -0.20463679415D+03
 Leave Link  804 at Thu Aug 31 18:54:43 2023, MaxMem= 17179869184 cpu:        23.3
 (Enter /opt/local/g09/l913.exe)
 CIDS:  MDV= 17179869184.
 Frozen-core window:  NFC=   3 NFV=   0.
 IFCWin=0 IBDFC=1 NFBD=     0     0 NFCmp=     0     0 NFFFC=     0     0
 Using original routines for 1st iteration, S=T.
 Using DD4UQ or CC4UQ for 2nd and later iterations.
 Keep R2 and R3 ints in memory in symmetry-blocked form, NReq=4504358.
 FoFCou: FMM=F IPFlag=           0 FMFlag=           0 FMFlg1=           0
         NFxFlg=           0 DoJE=F BraDBF=F KetDBF=F FulRan=T
         wScrn=  0.000000 ICntrl=     600 IOpCl=  0 I1Cent=           0 NGrid=           0
         NMat0=    1 NMatS0=   2415 NMatT0=    0 NMatD0=    1 NMtDS0=    0 NMtDT0=    0
 Petite list used in FoFCou.
 CCSD(T)
 =======
 Iterations=  50 Convergence= 0.100D-06
 Iteration Nr.   1
 **********************
 DD1Dir will call FoFMem   1 times, MxPair=       208
 NAB=    72 NAA=    36 NBB=    28.
 E(PMP3)=      -0.20461195555D+03
 MP4(R+Q)=  0.14487210D-01
 Maximum subspace dimension=  5
 Norm of the A-vectors is  8.6913217D-01 conv= 1.00D-05.
 RLE energy=       -0.5308052909
 E3=        0.22919504D-01        EUMP3=      -0.20461017420D+03
 E4(DQ)=   -0.36054342D-02        UMP4(DQ)=   -0.20461377963D+03
 E4(SDQ)=  -0.18001775D-01        UMP4(SDQ)=  -0.20462817597D+03
 VARIATIONAL ENERGIES WITH THE FIRST-ORDER WAVEFUNCTION:
 DE(Corr)= -0.52838697     E(Corr)=     -204.59483837    
 NORM(A)=   0.10772739D+01
 Iteration Nr.   2
 **********************
 DD1Dir will call FoFMem   1 times, MxPair=       208
 NAB=    72 NAA=    36 NBB=    28.
 Norm of the A-vectors is  3.5098357D-01 conv= 1.00D-05.
 RLE energy=       -0.5554703877
 DE(Corr)= -0.55733368     E(CORR)=     -204.62378508     Delta=-2.89D-02
 NORM(A)=   0.10870705D+01
 Iteration Nr.   3
 **********************
 DD1Dir will call FoFMem   1 times, MxPair=       208
 NAB=    72 NAA=    36 NBB=    28.
 Norm of the A-vectors is  8.6435577D-02 conv= 1.00D-05.
 RLE energy=       -0.5574645461
 DE(Corr)= -0.55423811     E(CORR)=     -204.62068952     Delta= 3.10D-03
 NORM(A)=   0.10912999D+01
 Iteration Nr.   4
 **********************
 DD1Dir will call FoFMem   1 times, MxPair=       208
 NAB=    72 NAA=    36 NBB=    28.
 Norm of the A-vectors is  3.7785396D-02 conv= 1.00D-05.
 RLE energy=       -0.5576863234
 DE(Corr)= -0.55739208     E(CORR)=     -204.62384348     Delta=-3.15D-03
 NORM(A)=   0.10928601D+01
 Iteration Nr.   5
 **********************
 DD1Dir will call FoFMem   1 times, MxPair=       208
 NAB=    72 NAA=    36 NBB=    28.
 Norm of the A-vectors is  1.1409450D-02 conv= 1.00D-05.
 RLE energy=       -0.5578738054
 DE(Corr)= -0.55778696     E(CORR)=     -204.62423836     Delta=-3.95D-04
 NORM(A)=   0.10933923D+01
 Iteration Nr.   6
 **********************
 DD1Dir will call FoFMem   1 times, MxPair=       208
 NAB=    72 NAA=    36 NBB=    28.
 Norm of the A-vectors is  5.2373468D-03 conv= 1.00D-05.
 RLE energy=       -0.5578082654
 DE(Corr)= -0.55783349     E(CORR)=     -204.62428489     Delta=-4.65D-05
 NORM(A)=   0.10934381D+01
 Iteration Nr.   7
 **********************
 DD1Dir will call FoFMem   1 times, MxPair=       208
 NAB=    72 NAA=    36 NBB=    28.
 Norm of the A-vectors is  2.0286797D-03 conv= 1.00D-05.
 RLE energy=       -0.5578317110
 DE(Corr)= -0.55784314     E(CORR)=     -204.62429454     Delta=-9.65D-06
 NORM(A)=   0.10934551D+01
 Iteration Nr.   8
 **********************
 DD1Dir will call FoFMem   1 times, MxPair=       208
 NAB=    72 NAA=    36 NBB=    28.
 Norm of the A-vectors is  9.5668409D-04 conv= 1.00D-05.
 RLE energy=       -0.5578334823
 DE(Corr)= -0.55783514     E(CORR)=     -204.62428654     Delta= 7.99D-06
 NORM(A)=   0.10934594D+01
 Iteration Nr.   9
 **********************
 DD1Dir will call FoFMem   1 times, MxPair=       208
 NAB=    72 NAA=    36 NBB=    28.
 Norm of the A-vectors is  3.8988996D-04 conv= 1.00D-05.
 RLE energy=       -0.5578431269
 DE(Corr)= -0.55784297     E(CORR)=     -204.62429437     Delta=-7.83D-06
 NORM(A)=   0.10934614D+01
 Iteration Nr.  10
 **********************
 DD1Dir will call FoFMem   1 times, MxPair=       208
 NAB=    72 NAA=    36 NBB=    28.
 Norm of the A-vectors is  1.6975283D-04 conv= 1.00D-05.
 RLE energy=       -0.5578401873
 DE(Corr)= -0.55783934     E(CORR)=     -204.62429074     Delta= 3.64D-06
 NORM(A)=   0.10934616D+01
 Iteration Nr.  11
 **********************
 DD1Dir will call FoFMem   1 times, MxPair=       208
 NAB=    72 NAA=    36 NBB=    28.
 Norm of the A-vectors is  7.5836364D-05 conv= 1.00D-05.
 RLE energy=       -0.5578420415
 DE(Corr)= -0.55784202     E(CORR)=     -204.62429343     Delta=-2.69D-06
 NORM(A)=   0.10934629D+01
 Iteration Nr.  12
 **********************
 DD1Dir will call FoFMem   1 times, MxPair=       208
 NAB=    72 NAA=    36 NBB=    28.
 Norm of the A-vectors is  2.9290327D-05 conv= 1.00D-05.
 RLE energy=       -0.5578418271
 DE(Corr)= -0.55784168     E(CORR)=     -204.62429309     Delta= 3.39D-07
 NORM(A)=   0.10934636D+01
 Iteration Nr.  13
 **********************
 DD1Dir will call FoFMem   1 times, MxPair=       208
 NAB=    72 NAA=    36 NBB=    28.
 Norm of the A-vectors is  1.9806008D-05 conv= 1.00D-05.
 RLE energy=       -0.5578420713
 DE(Corr)= -0.55784204     E(CORR)=     -204.62429344     Delta=-3.57D-07
 NORM(A)=   0.10934640D+01
 Iteration Nr.  14
 **********************
 DD1Dir will call FoFMem   1 times, MxPair=       208
 NAB=    72 NAA=    36 NBB=    28.
 Norm of the A-vectors is  1.0958988D-05 conv= 1.00D-05.
 RLE energy=       -0.5578421546
 DE(Corr)= -0.55784206     E(CORR)=     -204.62429346     Delta=-1.96D-08
 NORM(A)=   0.10934643D+01
 Iteration Nr.  15
 **********************
 DD1Dir will call FoFMem   1 times, MxPair=       208
 NAB=    72 NAA=    36 NBB=    28.
 Norm of the A-vectors is  7.2534980D-06 conv= 1.00D-05.
 RLE energy=       -0.5578420379
 DE(Corr)= -0.55784207     E(CORR)=     -204.62429348     Delta=-1.33D-08
 NORM(A)=   0.10934643D+01
 CI/CC converged in   15 iterations to DelEn=-1.33D-08 Conv= 1.00D-07 ErrA1= 7.25D-06 Conv= 1.00D-05
 T1 Diagnostic =     0.02508661
 Largest amplitude= 8.49D-02
 Time for triples=       69.19 seconds.
 T4(CCSD)= -0.30711697D-01
 T5(CCSD)=  0.32424883D-02
 CCSD(T)= -0.20465176268D+03

 S**2, projected HF & approx projected MPn energies after annihilation of
 unwanted spin states (see manual for definitions):

 spins       (S**2,0) (S**2,1)    PUHF        PMP2        PMP3        PMP4
 annihilated
 s+1         0.74985  0.75009 -204.072448 -204.636794 -204.611955
 s+1,s+2     0.75000  0.75000 -204.072411 -204.636761 -204.611927
 s+1 to s+3  0.75000  0.75000 -204.072411 -204.636761 -204.611927
 s+1 to s+4  0.75000  0.75000 -204.072411 -204.636761 -204.611927
 s+1 to s+5  0.75000  0.75000 -204.072411
 s+1 to s+6  0.75000  0.75000 -204.072411

 Discarding MO integrals.
 Leave Link  913 at Thu Aug 31 18:54:56 2023, MaxMem= 17179869184 cpu:       405.4
 (Enter /opt/local/g09/l601.exe)
 Copying SCF densities to generalized density rwf, IOpCl= 1 IROHF=0.

 **********************************************************************

            Population analysis using the SCF density.

 **********************************************************************

 Orbital symmetries:
 Alpha Orbitals:
       Occupied  (A') (A') (A') (A') (A') (A') (A') (A') (A") (A')
                 (A") (A')
       Virtual   (A") (A') (A') (A') (A") (A') (A') (A") (A') (A")
                 (A') (A') (A') (A') (A") (A') (A') (A") (A') (A')
                 (A') (A') (A") (A") (A') (A") (A') (A') (A") (A")
                 (A') (A') (A') (A') (A') (A") (A") (A') (A') (A')
                 (A") (A') (A") (A') (A') (A') (A') (A") (A") (A')
                 (A') (A") (A') (A') (A") (A') (A')
 Beta  Orbitals:
       Occupied  (A') (A') (A') (A') (A') (A') (A') (A") (A') (A")
                 (A')
       Virtual   (A') (A") (A') (A') (A') (A") (A') (A') (A") (A')
                 (A") (A') (A') (A') (A') (A") (A') (A') (A") (A')
                 (A') (A') (A') (A") (A") (A') (A") (A") (A') (A')
                 (A") (A') (A') (A') (A') (A") (A') (A") (A') (A')
                 (A') (A") (A') (A") (A') (A') (A') (A') (A") (A")
                 (A') (A') (A") (A') (A') (A") (A') (A')
 The electronic state is 2-A'.
 Alpha  occ. eigenvalues --  -20.70045 -20.70040 -15.89075  -1.68968  -1.50923
 Alpha  occ. eigenvalues --   -0.97538  -0.84046  -0.81007  -0.76985  -0.59926
 Alpha  occ. eigenvalues --   -0.53240  -0.50430
 Alpha virt. eigenvalues --    0.06718   0.08917   0.11313   0.13269   0.14203
 Alpha virt. eigenvalues --    0.21876   0.21886   0.23226   0.24490   0.26397
 Alpha virt. eigenvalues --    0.28323   0.37374   0.41005   0.49459   0.64374
 Alpha virt. eigenvalues --    0.66339   0.66970   0.82291   0.83056   0.84312
 Alpha virt. eigenvalues --    0.90533   0.97190   0.97402   1.12975   1.13446
 Alpha virt. eigenvalues --    1.15374   1.16318   1.17025   1.17056   1.25300
 Alpha virt. eigenvalues --    1.25823   1.27533   1.39238   1.47844   1.73062
 Alpha virt. eigenvalues --    1.74681   1.76084   1.91519   2.08517   2.28047
 Alpha virt. eigenvalues --    2.31381   2.36585   2.40082   2.60180   2.94684
 Alpha virt. eigenvalues --    3.36748   3.38274   3.52885   3.54531   3.55047
 Alpha virt. eigenvalues --    3.57230   3.69157   3.79126   3.79370   3.93673
 Alpha virt. eigenvalues --    4.03836   4.20652
  Beta  occ. eigenvalues --  -20.68607 -20.68591 -15.86796  -1.64700  -1.46751
  Beta  occ. eigenvalues --   -0.89058  -0.76152  -0.75162  -0.72019  -0.52907
  Beta  occ. eigenvalues --   -0.49920
  Beta virt. eigenvalues --    0.01469   0.09644   0.10864   0.11434   0.14023
  Beta virt. eigenvalues --    0.14359   0.22126   0.22765   0.23252   0.25217
  Beta virt. eigenvalues --    0.26731   0.28407   0.38301   0.41541   0.51280
  Beta virt. eigenvalues --    0.65009   0.68008   0.71716   0.82268   0.84520
  Beta virt. eigenvalues --    0.85597   0.94011   0.97899   0.98751   1.12918
  Beta virt. eigenvalues --    1.14806   1.16279   1.17846   1.18279   1.19816
  Beta virt. eigenvalues --    1.26005   1.27070   1.30413   1.41382   1.50007
  Beta virt. eigenvalues --    1.75031   1.75652   1.76429   1.94646   2.09052
  Beta virt. eigenvalues --    2.29906   2.35899   2.40133   2.40760   2.62885
  Beta virt. eigenvalues --    2.97384   3.38816   3.39948   3.55928   3.56439
  Beta virt. eigenvalues --    3.58111   3.59003   3.69550   3.81422   3.82084
  Beta virt. eigenvalues --    3.95112   4.05841   4.23586
          Condensed to atoms (all electrons):
               1          2          3
     1  N    6.013248   0.011020   0.011059
     2  O    0.011020   8.546407  -0.074987
     3  O    0.011059  -0.074987   8.546161
          Atomic-Atomic Spin Densities.
               1          2          3
     1  N    0.823360  -0.153740  -0.152990
     2  O   -0.153740   0.365768   0.031209
     3  O   -0.152990   0.031209   0.361914
 Mulliken charges and spin densities:
               1          2
     1  N    0.964673   0.516630
     2  O   -0.482440   0.243237
     3  O   -0.482233   0.240133
 Sum of Mulliken charges =   0.00000   1.00000
 Mulliken charges and spin densities with hydrogens summed into heavy atoms:
               1          2
     1  N    0.964673   0.516630
     2  O   -0.482440   0.243237
     3  O   -0.482233   0.240133
 Electronic spatial extent (au):  <R**2>=            109.1591
 Charge=              0.0000 electrons
 Dipole moment (field-independent basis, Debye):
    X=             -0.0012    Y=              0.6620    Z=              0.0000  Tot=              0.6620
 Quadrupole moment (field-independent basis, Debye-Ang):
   XX=            -18.4925   YY=            -15.5382   ZZ=            -15.0328
   XY=              0.0002   XZ=              0.0000   YZ=              0.0000
 Traceless Quadrupole moment (field-independent basis, Debye-Ang):
   XX=             -2.1380   YY=              0.8163   ZZ=              1.3217
   XY=              0.0002   XZ=              0.0000   YZ=              0.0000
 Octapole moment (field-independent basis, Debye-Ang**2):
  XXX=             -0.0029  YYY=             -0.2394  ZZZ=              0.0000  XYY=              0.0000
  XXY=             -0.7175  XXZ=              0.0000  XZZ=             -0.0018  YZZ=              0.0373
  YYZ=              0.0000  XYZ=              0.0000
 Hexadecapole moment (field-independent basis, Debye-Ang**3):
 XXXX=            -90.7394 YYYY=            -16.6702 ZZZZ=            -11.4233 XXXY=              0.0102
 XXXZ=              0.0000 YYYX=              0.0096 YYYZ=              0.0000 ZZZX=              0.0000
 ZZZY=              0.0000 XXYY=            -17.7816 XXZZ=            -17.1580 YYZZ=             -4.5849
 XXYZ=              0.0000 YYXZ=              0.0000 ZZXY=              0.0037
 N-N= 6.514023179937D+01 E-N=-6.120477116519D+02  KE= 2.036632234450D+02
 Symmetry A'   KE= 1.951510691254D+02
 Symmetry A"   KE= 8.512154319559D+00
 Leave Link  601 at Thu Aug 31 18:54:56 2023, MaxMem= 17179869184 cpu:         2.6
 (Enter /opt/local/g09/l9999.exe)
 1\1\GINC-N216\SP\UCCSD(T)-FC\Aug-CC-pVDZ\N1O2(2)\XIZK\31-Aug-2023\0\\#
 p CCSD(T,T1Diag)/aug-cc-pvdz geom=check guess=read\\Title Card Require
 d\\0,2\N,0,2.9217436682,-0.131705814,0.\O,0,1.8105337886,0.2995827058,
 0.\O,0,4.0070568532,0.3605512382,0.\\Version=EM64L-G09RevD.01\State=2-
 A'\HF=-204.0664514\MP2=-204.6330937\MP3=-204.6101742\MP4D=-204.6282668
 \MP4DQ=-204.6137796\PUHF=-204.072448\PMP2-0=-204.6367941\PMP3-0=-204.6
 119555\MP4SDQ=-204.628176\CCSD=-204.6242935\CCSD(T)=-204.6517627\S2=0.
 770033\S2-1=0.754573\S2A=0.75026\RMSD=8.802e-09\PG=CS [SG(N1O2)]\\@


 A COMPUTER IS LIKE A HORSE, IT WILL SENSE WEAKNESS.
     -- GREG WETTSTEIN
 Job cpu time:       0 days  0 hours  7 minutes 46.3 seconds.
 File lengths (MBytes):  RWF=     78 Int=      0 D2E=      0 Chk=      2 Scr=      1
 Normal termination of Gaussian 09 at Thu Aug 31 18:54:56 2023.
